
     Program PWSCF v.5.1 starts on 18Jun2018 at  4:19: 1 

     This program is part of the open-source Quantum ESPRESSO suite
     for quantum simulation of materials; please cite
         "P. Giannozzi et al., J. Phys.:Condens. Matter 21 395502 (2009);
          URL http://www.quantum-espresso.org", 
     in publications or presentations arising from this work. More details at
     http://www.quantum-espresso.org/quote

     Parallel version (MPI), running on     1 processors
     Waiting for input...
     Reading input from standard input
Warning: card &CELL ignored
Warning: card / ignored

     Current dimensions of program PWSCF are:
     Max number of different atomic species (ntypx) = 10
     Max number of k-points (npk) =  40000
     Max angular momentum in pseudopotentials (lmaxx) =  3
               file C.pbe-n-kjpaw_psl.1.0.0.UPF: wavefunction(s)  2S 2P renormalized
               file O.pbe-n-kjpaw_psl.0.1.U: wavefunction(s)  2P renormalized

     Subspace diagonalization in iterative solution of the eigenvalue problem:
     a serial algorithm will be used


     G-vector sticks info
     --------------------
     sticks:   dense  smooth     PW     G-vecs:    dense   smooth      PW
     Sum         649     313    109               100611    35335    6935



     bravais-lattice index     =            4
     lattice parameter (alat)  =       5.4490  a.u.
     unit-cell volume          =    1040.6255 (a.u.)^3
     number of atoms/cell      =            6
     number of atomic types    =            3
     number of electrons       =        86.00
     number of Kohn-Sham states=           52
     kinetic-energy cutoff     =      40.0000  Ry
     charge density cutoff     =     320.0000  Ry
     convergence threshold     =      1.0E-06
     mixing beta               =       0.7000
     number of iterations used =            8  plain     mixing
     Exchange-correlation      =  SLA  PW   PBX  PBC ( 1  4  3  4 0)
     nstep                     =           50


     celldm(1)=   5.449000  celldm(2)=   0.000000  celldm(3)=   7.427000
     celldm(4)=   0.000000  celldm(5)=   0.000000  celldm(6)=   0.000000

     crystal axes: (cart. coord. in units of alat)
               a(1) = (   1.000000   0.000000   0.000000 )  
               a(2) = (  -0.500000   0.866025   0.000000 )  
               a(3) = (   0.000000   0.000000   7.427000 )  

     reciprocal axes: (cart. coord. in units 2 pi/alat)
               b(1) = (  1.000000  0.577350 -0.000000 )  
               b(2) = (  0.000000  1.154701  0.000000 )  
               b(3) = (  0.000000 -0.000000  0.134644 )  


     PseudoPot. # 1 for Au read from file:
     /home/oropebuen/Documents/Job/Absortion/SSSP_efficiency_pseudos/Au_ONCV_PBE-1.0.upf
     MD5 check sum: 1009843a674e36925f098327e430af60
     Pseudo is Norm-conserving, Zval = 19.0
     Generated using ONCVPSP code by D. R. Hamann
     Using radial grid of  602 points,  8 beta functions with: 
                l(1) =   0
                l(2) =   0
                l(3) =   1
                l(4) =   1
                l(5) =   2
                l(6) =   2
                l(7) =   3
                l(8) =   3

     PseudoPot. # 2 for  C read from file:
     /home/oropebuen/Documents/Job/Absortion/SSSP_efficiency_pseudos/C.pbe-n-kjpaw_psl.1.0.0.UPF
     MD5 check sum: 8e281b34a927efac7e739263a90d7aed
     Pseudo is Projector augmented-wave + core cor, Zval =  4.0
     Generated using "atomic" code by A. Dal Corso  v.5.1
     Shape of augmentation charge: PSQ
     Using radial grid of 1073 points,  4 beta functions with: 
                l(1) =   0
                l(2) =   0
                l(3) =   1
                l(4) =   1
     Q(r) pseudized with 0 coefficients 


     PseudoPot. # 3 for  O read from file:
     /home/oropebuen/Documents/Job/Absortion/SSSP_efficiency_pseudos/O.pbe-n-kjpaw_psl.0.1.U
     MD5 check sum: 3f94a2996a3169367d6eb21d9b593f20
     Pseudo is Projector augmented-wave + core cor, Zval =  6.0
     Generated using "atomic" code by A. Dal Corso  v.5.0.99 svn rev. 10869
     Shape of augmentation charge: BESSEL
     Using radial grid of 1095 points,  4 beta functions with: 
                l(1) =   0
                l(2) =   0
                l(3) =   1
                l(4) =   1
     Q(r) pseudized with 0 coefficients 


     atomic species   valence    mass     pseudopotential
        Au            19.00   196.96600     Au( 1.00)
        C              4.00    12.01070      C( 1.00)
        O              6.00    15.99940      O( 1.00)

      2 Sym. Ops. (no inversion) found



   Cartesian axes

     site n.     atom                  positions (alat units)
         1           Au  tau(   1) = (   0.0000000   0.0000000   0.0000000  )
         2           Au  tau(   2) = (   0.5000000   0.2886750   0.8164970  )
         3           Au  tau(   3) = (   0.0000000   0.5773500   1.6329930  )
         4           Au  tau(   4) = (   0.0000000   0.0000000   2.4494900  )
         5           C   tau(   5) = (   0.5000000   0.0000000   3.0737340  )
         6           O   tau(   6) = (   0.5000010   0.0010000   3.4648430  )

     number of k points=    52  gaussian smearing, width (Ry)=  0.0100
                       cart. coord. in units 2pi/alat
        k(    1) = (   0.0625000   0.1082532  -0.0673219), wk =   0.0416667
        k(    2) = (   0.0625000   0.2525907  -0.0673219), wk =   0.0416667
        k(    3) = (   0.0625000   0.3969283  -0.0673219), wk =   0.0416667
        k(    4) = (   0.0625000   0.5412659  -0.0673219), wk =   0.0416667
        k(    5) = (   0.0625000  -0.4690971  -0.0673219), wk =   0.0416667
        k(    6) = (   0.0625000  -0.3247595  -0.0673219), wk =   0.0416667
        k(    7) = (   0.0625000  -0.1804220  -0.0673219), wk =   0.0416667
        k(    8) = (   0.0625000  -0.0360844  -0.0673219), wk =   0.0416667
        k(    9) = (   0.1875000   0.3247595  -0.0673219), wk =   0.0416667
        k(   10) = (   0.1875000   0.4690971  -0.0673219), wk =   0.0416667
        k(   11) = (   0.1875000   0.6134347  -0.0673219), wk =   0.0416667
        k(   12) = (   0.1875000  -0.3969283  -0.0673219), wk =   0.0416667
        k(   13) = (   0.1875000  -0.2525907  -0.0673219), wk =   0.0416667
        k(   14) = (   0.1875000  -0.1082532  -0.0673219), wk =   0.0416667
        k(   15) = (   0.3125000   0.5412659  -0.0673219), wk =   0.0416667
        k(   16) = (   0.3125000   0.6856034  -0.0673219), wk =   0.0416667
        k(   17) = (   0.3125000  -0.3247595  -0.0673219), wk =   0.0416667
        k(   18) = (   0.3125000  -0.1804220  -0.0673219), wk =   0.0416667
        k(   19) = (   0.4375000   0.7577722  -0.0673219), wk =   0.0416667
        k(   20) = (   0.4375000  -0.2525907  -0.0673219), wk =   0.0416667
        k(   21) = (   0.1250000   0.0000000  -0.0673219), wk =   0.0208333
        k(   22) = (  -0.1875000   0.1804220  -0.0673219), wk =   0.0416667
        k(   23) = (   0.2500000   0.0721688  -0.0673219), wk =   0.0416667
        k(   24) = (  -0.3125000   0.2525907  -0.0673219), wk =   0.0416667
        k(   25) = (   0.3750000   0.1443376  -0.0673219), wk =   0.0416667
        k(   26) = (  -0.4375000   0.3247595  -0.0673219), wk =   0.0416667
        k(   27) = (   0.5000000   0.2165064  -0.0673219), wk =   0.0416667
        k(   28) = (   0.4375000  -0.1804220  -0.0673219), wk =   0.0416667
        k(   29) = (  -0.3750000  -0.2886751  -0.0673219), wk =   0.0416667
        k(   30) = (   0.3125000  -0.1082532  -0.0673219), wk =   0.0416667
        k(   31) = (  -0.2500000  -0.2165064  -0.0673219), wk =   0.0416667
        k(   32) = (   0.1875000  -0.0360844  -0.0673219), wk =   0.0416667
        k(   33) = (  -0.1250000  -0.1443376  -0.0673219), wk =   0.0416667
        k(   34) = (   0.0000000  -0.0721688  -0.0673219), wk =   0.0208333
        k(   35) = (   0.3750000   0.0000000  -0.0673219), wk =   0.0208333
        k(   36) = (  -0.3125000   0.3969283  -0.0673219), wk =   0.0416667
        k(   37) = (   0.5000000   0.0721688  -0.0673219), wk =   0.0416667
        k(   38) = (  -0.4375000   0.4690971  -0.0673219), wk =   0.0416667
        k(   39) = (   0.6250000   0.1443376  -0.0673219), wk =   0.0416667
        k(   40) = (   0.4375000  -0.0360844  -0.0673219), wk =   0.0416667
        k(   41) = (  -0.2500000  -0.3608439  -0.0673219), wk =   0.0416667
        k(   42) = (   0.3125000   0.0360844  -0.0673219), wk =   0.0416667
        k(   43) = (  -0.1250000  -0.2886751  -0.0673219), wk =   0.0416667
        k(   44) = (   0.0000000  -0.2165064  -0.0673219), wk =   0.0208333
        k(   45) = (   0.6250000   0.0000000  -0.0673219), wk =   0.0208333
        k(   46) = (  -0.4375000   0.6134347  -0.0673219), wk =   0.0416667
        k(   47) = (   0.7500000   0.0721688  -0.0673219), wk =   0.0416667
        k(   48) = (   0.4375000   0.1082532  -0.0673219), wk =   0.0416667
        k(   49) = (  -0.1250000  -0.4330127  -0.0673219), wk =   0.0416667
        k(   50) = (   0.0000000  -0.3608439  -0.0673219), wk =   0.0208333
        k(   51) = (   0.8750000   0.0000000  -0.0673219), wk =   0.0208333
        k(   52) = (   0.0000000  -0.5051815  -0.0673219), wk =   0.0208333

     Dense  grid:   100611 G-vectors     FFT dimensions: (  32,  32, 240)

     Smooth grid:    35335 G-vectors     FFT dimensions: (  24,  24, 180)

     Largest allocated arrays     est. size (Mb)     dimensions
        Kohn-Sham Wavefunctions         3.59 Mb     (    4520,   52)
        NL pseudopotentials             9.93 Mb     (    4520,  144)
        Each V/rho on FFT grid          3.75 Mb     (  245760)
        Each G-vector array             0.77 Mb     (  100611)
        G-vector shells                 0.04 Mb     (    4911)
     Largest temporary arrays     est. size (Mb)     dimensions
        Auxiliary wavefunctions        14.35 Mb     (    4520,  208)
        Each subspace H/S matrix        0.66 Mb     (     208,  208)
        Each <psi_i|beta_j> matrix      0.11 Mb     (     144,   52)
        Arrays for rho mixing          30.00 Mb     (  245760,    8)

     Check: negative/imaginary core charge=   -0.000003    0.000000

     Initial potential from superposition of free atoms
     Check: negative starting charge=   -0.000179

     starting charge   85.91012, renormalised to   86.00000

     negative rho (up, down):  1.790E-04 0.000E+00
     Starting wfc are    8 randomized atomic wfcs +   44 random wfc
     Checking if some PAW data can be deallocated... 

     total cpu time spent up to now is       42.8 secs

     per-process dynamical memory:   267.1 Mb

     Self-consistent Calculation

     iteration #  1     ecut=    40.00 Ry     beta=0.70
     Davidson diagonalization with overlap
     ethr =  1.00E-02,  avg # of iterations =  7.1

     Threshold (ethr) on eigenvalues was too large:
     Diagonalizing with lowered threshold

     Davidson diagonalization with overlap
     ethr =  6.36E-04,  avg # of iterations =  1.0

     negative rho (up, down):  1.509E-04 0.000E+00

     total cpu time spent up to now is      495.9 secs

     total energy              =   -1158.44403221 Ry
     Harris-Foulkes estimate   =   -1158.89694161 Ry
     estimated scf accuracy    <       0.54775388 Ry

     iteration #  2     ecut=    40.00 Ry     beta=0.70
     Davidson diagonalization with overlap
     ethr =  6.37E-04,  avg # of iterations =  5.5

     negative rho (up, down):  3.872E-04 0.000E+00

     total cpu time spent up to now is      694.4 secs

     total energy              =   -1150.48805258 Ry
     Harris-Foulkes estimate   =   -1166.14615405 Ry
     estimated scf accuracy    <     455.24228267 Ry

     iteration #  3     ecut=    40.00 Ry     beta=0.70
     Davidson diagonalization with overlap
     ethr =  6.37E-04,  avg # of iterations =  5.0

     negative rho (up, down):  2.073E-04 0.000E+00

     total cpu time spent up to now is      871.8 secs

     total energy              =   -1158.50722829 Ry
     Harris-Foulkes estimate   =   -1159.11431491 Ry
     estimated scf accuracy    <       2.23542788 Ry

     iteration #  4     ecut=    40.00 Ry     beta=0.70
     Davidson diagonalization with overlap
     ethr =  6.37E-04,  avg # of iterations =  3.5

     negative rho (up, down):  1.255E-04 0.000E+00

     total cpu time spent up to now is     1004.0 secs

     total energy              =   -1158.80750895 Ry
     Harris-Foulkes estimate   =   -1158.83101943 Ry
     estimated scf accuracy    <       0.23927151 Ry

     iteration #  5     ecut=    40.00 Ry     beta=0.70
     Davidson diagonalization with overlap
     ethr =  2.78E-04,  avg # of iterations =  2.8

     negative rho (up, down):  1.256E-04 0.000E+00

     total cpu time spent up to now is     1114.6 secs

     total energy              =   -1158.80412632 Ry
     Harris-Foulkes estimate   =   -1158.83108559 Ry
     estimated scf accuracy    <       0.22874950 Ry

     iteration #  6     ecut=    40.00 Ry     beta=0.70
     Davidson diagonalization with overlap
     ethr =  2.66E-04,  avg # of iterations =  2.7

     negative rho (up, down):  1.314E-04 0.000E+00

     total cpu time spent up to now is     1226.8 secs

     total energy              =   -1158.81317806 Ry
     Harris-Foulkes estimate   =   -1158.82385362 Ry
     estimated scf accuracy    <       0.07468143 Ry

     iteration #  7     ecut=    40.00 Ry     beta=0.70
     Davidson diagonalization with overlap
     ethr =  8.68E-05,  avg # of iterations =  2.2

     negative rho (up, down):  1.343E-04 0.000E+00

     total cpu time spent up to now is     1383.0 secs

     total energy              =   -1158.81698121 Ry
     Harris-Foulkes estimate   =   -1158.81903897 Ry
     estimated scf accuracy    <       0.04352011 Ry

     iteration #  8     ecut=    40.00 Ry     beta=0.70
     Davidson diagonalization with overlap
     ethr =  5.06E-05,  avg # of iterations =  1.1

     negative rho (up, down):  1.382E-04 0.000E+00

     total cpu time spent up to now is     1575.4 secs

     total energy              =   -1158.81714272 Ry
     Harris-Foulkes estimate   =   -1158.81796222 Ry
     estimated scf accuracy    <       0.01690946 Ry

     iteration #  9     ecut=    40.00 Ry     beta=0.70
     Davidson diagonalization with overlap
     ethr =  1.97E-05,  avg # of iterations =  1.1

     negative rho (up, down):  1.409E-04 0.000E+00

     total cpu time spent up to now is     1770.0 secs

     total energy              =   -1158.81718042 Ry
     Harris-Foulkes estimate   =   -1158.81739574 Ry
     estimated scf accuracy    <       0.00472063 Ry

     iteration # 10     ecut=    40.00 Ry     beta=0.70
     Davidson diagonalization with overlap
     ethr =  5.49E-06,  avg # of iterations =  2.7

     negative rho (up, down):  1.425E-04 0.000E+00

     total cpu time spent up to now is     1982.3 secs

     total energy              =   -1158.81713459 Ry
     Harris-Foulkes estimate   =   -1158.81722262 Ry
     estimated scf accuracy    <       0.00201292 Ry

     iteration # 11     ecut=    40.00 Ry     beta=0.70
     Davidson diagonalization with overlap
     ethr =  2.34E-06,  avg # of iterations =  1.3

     negative rho (up, down):  1.455E-04 0.000E+00

     total cpu time spent up to now is     2181.3 secs

     total energy              =   -1158.81707504 Ry
     Harris-Foulkes estimate   =   -1158.81715586 Ry
     estimated scf accuracy    <       0.00061480 Ry

     iteration # 12     ecut=    40.00 Ry     beta=0.70
     Davidson diagonalization with overlap
     ethr =  7.15E-07,  avg # of iterations =  2.2

     negative rho (up, down):  1.456E-04 0.000E+00

     total cpu time spent up to now is     2349.9 secs

     total energy              =   -1158.81711453 Ry
     Harris-Foulkes estimate   =   -1158.81711724 Ry
     estimated scf accuracy    <       0.00001105 Ry

     iteration # 13     ecut=    40.00 Ry     beta=0.70
     Davidson diagonalization with overlap
     ethr =  1.28E-08,  avg # of iterations =  2.0

     negative rho (up, down):  1.458E-04 0.000E+00

     total cpu time spent up to now is     2508.8 secs

     End of self-consistent calculation

          k = 0.0625 0.1083-0.0673 (  4518 PWs)   bands (ev):

   -98.8416 -98.1300 -98.0326 -97.5941 -50.2088 -50.1078 -50.0097 -49.4719
   -49.3676 -49.3527 -49.3217 -49.2756 -49.2605 -48.8553 -48.8385 -48.8207
   -17.4782  -3.8374  -1.5516  -1.0162   0.0356   0.6780   0.8449   1.2363
     1.3087   2.2437   2.5032   2.6829   2.7823   2.9758   3.0724   3.1227
     3.3193   3.4480   3.6429   3.7872   3.8881   3.9563   4.4836   4.6010
     4.8856   5.2082   5.5431   5.8382   7.9023  11.0082  11.2873  11.8105
    12.7801  13.1509  14.7503  15.2678

          k = 0.0625 0.2526-0.0673 (  4466 PWs)   bands (ev):

   -98.8391 -98.1274 -98.0301 -97.5916 -50.2019 -50.1226 -50.0612 -49.4630
   -49.4193 -49.3682 -49.3294 -49.3155 -49.2743 -48.9069 -48.8521 -48.8158
   -17.3394  -3.3204  -1.0310  -0.3498   0.3000   0.8104   1.0713   1.3714
     1.5969   1.9843   2.2991   2.4757   2.5905   2.9021   3.1449   3.2605
     3.3497   3.4724   3.7153   3.9869   4.0325   4.2601   4.4749   4.7222
     4.9616   5.2689   5.5933   6.7388   9.1004  10.1085  11.3299  12.1219
    13.6904  14.0928  15.5031  16.2765

          k = 0.0625 0.3969-0.0673 (  4438 PWs)   bands (ev):

   -98.8362 -98.1245 -98.0272 -97.5886 -50.1938 -50.1413 -50.1202 -49.4815
   -49.4547 -49.3870 -49.3789 -49.3171 -49.2911 -48.9662 -48.8690 -48.8101
   -17.1694  -2.6917  -1.0675  -0.3064   0.5695   0.7985   1.0050   1.2415
     1.6422   1.7890   2.1675   2.6543   2.9109   3.0082   3.1997   3.3146
     3.7133   3.9711   4.3814   4.4625   4.7593   4.8695   5.1334   5.3961
     5.5258   5.7370   5.9949   7.6790   9.1030  10.3669  11.0729  13.2947
    14.1221  14.9063  15.3478  15.8648

          k = 0.0625 0.5413-0.0673 (  4394 PWs)   bands (ev):

   -98.8345 -98.1228 -98.0255 -97.5870 -50.1893 -50.1602 -50.1451 -49.5147
   -49.4606 -49.4013 -49.3950 -49.3175 -49.3005 -48.9994 -48.8785 -48.8069
   -17.0697  -2.2518  -1.4279  -0.4233   0.6172   0.6897   0.8744   1.0265
     1.5091   1.7232   2.0151   2.3980   2.8651   3.0257   3.4300   3.8264
     4.1431   4.5200   4.7793   5.2054   5.4239   5.4959   5.7127   5.7643
     6.0542   6.7310   7.7896   8.5018   9.6220  10.3325  10.8031  11.3805
    12.1445  13.1279  14.4029  16.2567

          k = 0.0625-0.4691-0.0673 (  4416 PWs)   bands (ev):

   -98.8351 -98.1234 -98.0261 -97.5876 -50.1909 -50.1515 -50.1385 -49.5029
   -49.4573 -49.3964 -49.3907 -49.3173 -49.2972 -48.9877 -48.8752 -48.8080
   -17.1050  -2.4261  -1.2672  -0.3904   0.6282   0.7355   0.9286   1.1012
     1.5613   1.7317   2.0612   2.5063   2.8876   3.0773   3.3535   3.6763
     3.9469   4.2727   4.6155   4.9728   5.2105   5.3047   5.4691   5.5949
     5.8162   6.2279   6.7874   8.0010   9.3465  10.8316  11.2109  11.7886
    12.8173  14.2347  15.2449  16.2713

          k = 0.0625-0.3248-0.0673 (  4460 PWs)   bands (ev):

   -98.8376 -98.1259 -98.0286 -97.5900 -50.1977 -50.1319 -50.0924 -49.4610
   -49.4482 -49.3776 -49.3559 -49.3170 -49.2830 -48.9378 -48.8609 -48.8128
   -17.2520  -3.0011  -0.9611  -0.1684   0.3202   0.8767   1.0449   1.3921
     1.7077   1.9233   2.3034   2.4425   2.7466   2.9017   3.0655   3.2909
     3.4762   3.7621   3.9267   4.0728   4.3986   4.4541   4.7905   5.0068
     5.2981   5.4205   5.6482   7.2135   9.3432   9.8760  11.2050  12.7566
    14.4052  14.8172  15.9646  16.1878

          k = 0.0625-0.1804-0.0673 (  4490 PWs)   bands (ev):

   -98.8406 -98.1289 -98.0315 -97.5930 -50.2058 -50.1142 -50.0321 -49.4678
   -49.3903 -49.3595 -49.3210 -49.2970 -49.2664 -48.8779 -48.8442 -48.8186
   -17.4186  -3.6125  -1.2655  -0.7467   0.3367   0.6545   1.1555   1.1827
     1.2817   2.1046   2.3803   2.6494   2.8273   2.8854   2.9795   3.2248
     3.3762   3.4299   3.6011   3.7621   3.9447   4.1080   4.4142   4.6034
     4.8032   5.2195   5.5604   6.2691   8.5228  10.6426  11.3230  11.8171
    13.1454  13.5289  15.0557  15.6947

          k = 0.0625-0.0361-0.0673 (  4520 PWs)   bands (ev):

   -98.8422 -98.1306 -98.0332 -97.5947 -50.2104 -50.1043 -49.9975 -49.4742
   -49.3550 -49.3488 -49.3229 -49.2625 -49.2584 -48.8418 -48.8367 -48.8219
   -17.5101  -3.9600  -1.7309  -1.1498  -0.1571   0.5879   0.7088   1.2860
     1.4168   2.3484   2.4458   2.6472   2.8932   3.0094   3.0275   3.1278
     3.1768   3.5517   3.6680   3.8303   3.9507   4.0110   4.5288   4.5556
     5.0086   5.1806   5.5415   5.6307   7.4422  10.9890  11.5187  11.8255
    12.5968  12.9620  14.5964  15.0415

          k = 0.1875 0.3248-0.0673 (  4450 PWs)   bands (ev):

   -98.8366 -98.1249 -98.0276 -97.5891 -50.1948 -50.1713 -50.0791 -49.4650
   -49.4515 -49.3949 -49.3626 -49.3165 -49.2987 -48.9468 -48.8769 -48.8109
   -17.1959  -2.7615  -0.9431   0.1349   0.3929   0.7558   1.2008   1.6216
     1.6959   1.9485   2.1571   2.2166   2.6461   2.7838   2.9120   3.2405
     3.2943   3.7273   3.8816   4.2013   4.5190   4.8297   4.9569   5.4223
     5.5806   5.8311   6.2332   7.8349   9.1355  10.1470  10.7300  13.3802
    14.9426  15.3892  15.9363  16.1955

          k = 0.1875 0.4691-0.0673 (  4428 PWs)   bands (ev):

   -98.8345 -98.1228 -98.0255 -97.5870 -50.1890 -50.1781 -50.1280 -49.4934
   -49.4522 -49.4192 -49.3875 -49.3221 -49.3157 -48.9783 -48.9001 -48.8068
   -17.0707  -2.2487  -1.1053  -0.0734   0.1665   1.0735   1.2530   1.4416
     1.7394   1.9286   2.2251   2.4167   2.7737   2.8895   3.1267   3.3291
     3.6168   4.0074   4.2050   4.3736   4.7997   5.0926   5.5262   5.6804
     5.8846   7.3481   7.9467   8.7506   9.7319  10.1001  11.8345  12.2456
    13.0992  14.2861  15.1898  15.7166

          k = 0.1875 0.6134-0.0673 (  4432 PWs)   bands (ev):

   -98.8340 -98.1223 -98.0250 -97.5865 -50.1876 -50.1754 -50.1438 -49.5001
   -49.4532 -49.4246 -49.3925 -49.3273 -49.3160 -48.9853 -48.9059 -48.8058
   -17.0408  -2.0999  -1.1814  -0.1456   0.1110   1.0576   1.2474   1.3983
     1.7310   1.8714   2.1689   2.3351   2.9088   3.0279   3.2268   3.4464
     3.6885   4.0183   4.4890   4.5545   4.9956   5.2728   5.4970   5.7312
     5.8086   7.7224   8.7927   9.5664   9.7236  10.3954  11.0573  11.7318
    12.7769  13.4448  14.4179  15.8803

          k = 0.1875-0.3969-0.0673 (  4450 PWs)   bands (ev):

   -98.8354 -98.1237 -98.0264 -97.5879 -50.1915 -50.1770 -50.1050 -49.4807
   -49.4517 -49.4090 -49.3773 -49.3167 -49.3110 -48.9650 -48.8897 -48.8086
   -17.1255  -2.4853  -1.0121   0.0336   0.2878   0.9911   1.2681   1.5271
     1.7401   2.0194   2.1644   2.4879   2.5638   2.7230   2.9663   3.2747
     3.5617   3.7361   3.9948   4.2198   4.6231   5.0099   5.3055   5.5993
     5.8063   6.5246   7.1058   8.3833   9.2465   9.9994  11.1640  13.7698
    14.4121  14.8615  15.6349  15.8630

          k = 0.1875-0.2526-0.0673 (  4452 PWs)   bands (ev):

   -98.8379 -98.1262 -98.0289 -97.5904 -50.1983 -50.1624 -50.0537 -49.4601
   -49.4395 -49.3799 -49.3452 -49.3166 -49.2860 -48.9257 -48.8644 -48.8134
   -17.2710  -3.0430  -0.9349   0.0475   0.2799   0.7748   1.0030   1.4154
     1.7522   1.8830   2.0991   2.3507   2.5541   2.8407   3.1051   3.2197
     3.3583   3.6836   3.9137   4.0203   4.3837   4.4463   4.7519   5.0086
     5.3380   5.4570   5.6882   7.2831   9.1750   9.9973  10.8929  12.7066
    14.2267  14.6839  15.9205  16.7309

          k = 0.1875-0.1083-0.0673 (  4480 PWs)   bands (ev):

   -98.8400 -98.1284 -98.0310 -97.5925 -50.2042 -50.1445 -50.0155 -49.4660
   -49.4022 -49.3607 -49.3216 -49.3050 -49.2702 -48.8855 -48.8495 -48.8176
   -17.3908  -3.4897  -1.1507  -0.6080   0.4082   0.4931   1.0236   1.2494
     1.3476   2.0544   2.2547   2.6121   2.7569   2.9916   3.0411   3.2910
     3.3556   3.5298   3.6902   3.8277   3.9742   4.2099   4.4491   4.5890
     5.0087   5.1241   5.6465   6.5282   8.7036  10.1708  11.2489  12.0583
    13.3180  13.7591  15.1850  15.8978

          k = 0.3125 0.5413-0.0673 (  4434 PWs)   bands (ev):

   -98.8336 -98.1218 -98.0246 -97.5860 -50.2144 -50.1860 -50.1175 -49.4787
   -49.4586 -49.4465 -49.3787 -49.3573 -49.3154 -48.9630 -48.9400 -48.8049
   -17.0140  -1.9974  -0.8315  -0.5362   0.0788   1.3779   1.4657   1.7389
     1.9176   2.1386   2.2669   2.3980   2.4898   2.7881   3.1540   3.7201
     3.7672   3.9114   4.0585   4.3246   4.6090   5.2645   5.4102   5.5412
     5.8102   8.1393   8.6746   9.8562  10.8326  11.0509  11.2296  12.4866
    12.8551  13.6227  14.2106  15.1539

          k = 0.3125 0.6856-0.0673 (  4444 PWs)   bands (ev):

   -98.8339 -98.1222 -98.0249 -97.5864 -50.2178 -50.1869 -50.1054 -49.4894
   -49.4492 -49.4391 -49.3844 -49.3418 -49.3156 -48.9722 -48.9222 -48.8056
   -17.0339  -2.0858  -1.0415  -0.2511   0.1260   1.2707   1.3358   1.7261
     1.8111   2.0283   2.2044   2.3948   2.4553   2.9455   3.0153   3.6066
     3.7490   4.0174   4.0879   4.3197   4.6915   5.2201   5.4304   5.6922
     5.8832   8.1235   8.5805   9.1190   9.8099  11.1635  11.5795  12.2816
    13.1772  13.4983  14.4993  15.0124

          k = 0.3125-0.3248-0.0673 (  4428 PWs)   bands (ev):

   -98.8353 -98.1236 -98.0263 -97.5878 -50.2187 -50.1908 -50.0670 -49.4911
   -49.4536 -49.4008 -49.3838 -49.3166 -49.3057 -48.9725 -48.8851 -48.8084
   -17.1178  -2.4508  -1.1686  -0.0704   0.5321   0.7193   1.0639   1.2428
     1.4766   1.7708   2.1199   2.5190   2.7409   2.9640   3.2258   3.3889
     3.7964   4.1621   4.3642   4.5282   4.8464   5.1500   5.2306   5.6793
     5.7875   6.5356   7.1844   8.1599   8.9732  10.3095  11.2247  12.8708
    13.8288  14.6678  15.5036  15.9963

          k = 0.3125-0.1804-0.0673 (  4442 PWs)   bands (ev):

   -98.8370 -98.1253 -98.0280 -97.5894 -50.2045 -50.1954 -50.0371 -49.4695
   -49.4543 -49.3774 -49.3674 -49.3172 -49.2863 -48.9486 -48.8659 -48.8116
   -17.2157  -2.8435  -1.0473  -0.0030   0.2418   0.6492   0.8751   1.2154
     1.5393   1.6685   2.1942   2.6016   2.9494   3.0915   3.1363   3.5723
     3.7287   4.0155   4.2089   4.3578   4.5392   4.8397   4.8841   5.0701
     5.3554   5.6794   5.7830   7.7135   8.4445  10.1840  11.0864  13.0841
    14.7120  15.0544  15.2163  16.1100

          k = 0.4375 0.7578-0.0673 (  4420 PWs)   bands (ev):

   -98.8342 -98.1225 -98.0252 -97.5867 -50.2477 -50.1876 -50.0669 -49.5110
   -49.4570 -49.4076 -49.3967 -49.3170 -49.3139 -48.9913 -48.8941 -48.8063
   -17.0525  -2.1756  -1.4364  -0.1961   0.3511   0.7773   1.0383   1.1950
     1.3106   1.8222   2.1219   2.5017   2.8104   3.1614   3.2040   3.6371
     4.0878   4.3751   4.7896   5.0838   5.2118   5.3040   5.6333   5.8094
     5.9093   7.4550   8.5917   9.1649   9.7985   9.9789  10.5938  11.6527
    12.2192  13.6533  13.8717  16.3476

          k = 0.4375-0.2526-0.0673 (  4396 PWs)   bands (ev):

   -98.8348 -98.1231 -98.0258 -97.5873 -50.2480 -50.1893 -50.0510 -49.5126
   -49.4593 -49.3987 -49.3892 -49.3176 -49.2977 -48.9927 -48.8774 -48.8075
   -17.0870  -2.3328  -1.4738  -0.2108   0.2833   0.6275   0.8864   1.0611
     1.1911   1.5501   2.0987   2.7429   2.9362   3.0886   3.4061   3.6867
     4.2782   4.6359   4.8951   5.0103   5.4654   5.6169   5.6532   5.7853
     6.1455   6.7172   7.3683   7.6649   9.3401  10.6246  10.9054  11.5623
    12.2540  13.5779  15.0569  15.9634

          k = 0.1250 0.0000-0.0673 (  4518 PWs)   bands (ev):

   -98.8416 -98.1300 -98.0326 -97.5941 -50.2087 -50.1180 -49.9997 -49.4719
   -49.3683 -49.3520 -49.3217 -49.2732 -49.2629 -48.8510 -48.8428 -48.8207
   -17.4781  -3.8286  -1.5526  -1.0050   0.0321   0.5891   0.8375   1.1927
     1.3730   2.2625   2.4514   2.6147   2.8258   2.9758   3.0494   3.1262
     3.3222   3.4519   3.6543   3.7848   3.9356   4.0452   4.5086   4.6009
     4.8982   5.2102   5.5578   5.8612   7.9081  10.6927  11.4829  11.8237
    12.7767  13.1743  14.7447  15.2767

          k =-0.1875 0.1804-0.0673 (  4466 PWs)   bands (ev):

   -98.8391 -98.1274 -98.0301 -97.5916 -50.2016 -50.1527 -50.0317 -49.4630
   -49.4198 -49.3677 -49.3283 -49.3151 -49.2758 -48.9043 -48.8547 -48.8158
   -17.3392  -3.2969  -1.0139  -0.3380   0.3646   0.6597   0.9898   1.2367
     1.5849   1.9221   2.1944   2.4668   2.6617   2.9750   3.1955   3.2678
     3.4610   3.5056   3.7283   4.0239   4.0406   4.2981   4.5134   4.7388
     4.9917   5.3232   5.6105   6.8509   8.9921  10.0299  11.1131  12.2726
    13.6824  14.1299  15.4859  16.2636

          k = 0.2500 0.0722-0.0673 (  4466 PWs)   bands (ev):

   -98.8391 -98.1274 -98.0301 -97.5916 -50.2015 -50.1672 -50.0175 -49.4630
   -49.4201 -49.3673 -49.3276 -49.3148 -49.2769 -48.9023 -48.8567 -48.8158
   -17.3391  -3.2965  -1.0039  -0.3488   0.2870   0.6274   1.0146   1.2652
     1.5870   1.9354   2.1914   2.4753   2.6489   2.9887   3.1715   3.2554
     3.3729   3.5306   3.7868   4.0186   4.0711   4.3763   4.5217   4.7484
     4.9942   5.3784   5.6081   6.9235   8.8484   9.9488  11.1582  12.2836
    13.6722  14.1500  15.4564  16.2861

          k =-0.3125 0.2526-0.0673 (  4438 PWs)   bands (ev):

   -98.8362 -98.1245 -98.0272 -97.5886 -50.2129 -50.1932 -50.0498 -49.4821
   -49.4545 -49.3864 -49.3773 -49.3171 -49.2930 -48.9627 -48.8724 -48.8101
   -17.1688  -2.6593  -1.1228  -0.0434   0.4309   0.6440   0.9039   1.1852
     1.4463   1.6849   2.1296   2.6149   2.8779   3.0494   3.1790   3.5281
     3.7739   4.2402   4.4232   4.4868   4.7390   4.9217   5.1721   5.4227
     5.6060   5.7918   6.2292   8.0530   8.4102  10.4132  10.9707  13.3436
    14.1912  14.9668  15.3389  15.9212

          k = 0.3750 0.1443-0.0673 (  4438 PWs)   bands (ev):

   -98.8362 -98.1245 -98.0272 -97.5886 -50.2227 -50.1931 -50.0404 -49.4822
   -49.4545 -49.3859 -49.3772 -49.3171 -49.2935 -48.9618 -48.8733 -48.8100
   -17.1687  -2.6816  -1.1367  -0.0835   0.4060   0.6581   0.9327   1.2006
     1.4616   1.6897   2.1695   2.6778   2.9266   3.0442   3.2458   3.4947
     3.7851   4.0984   4.4194   4.5096   4.7107   4.9207   5.1681   5.4171
     5.6162   5.8102   6.3017   7.9342   8.3332  10.4368  11.0436  13.3358
    14.1791  14.9621  15.3309  15.9695

          k =-0.4375 0.3248-0.0673 (  4394 PWs)   bands (ev):

   -98.8345 -98.1228 -98.0255 -97.5870 -50.2500 -50.1884 -50.0571 -49.5153
   -49.4597 -49.4003 -49.3942 -49.3174 -49.3027 -48.9955 -48.8824 -48.8069
   -17.0688  -2.2393  -1.5127  -0.2146   0.3130   0.6702   0.9225   1.0653
     1.1806   1.6132   2.0980   2.6639   2.9061   3.0955   3.3300   3.7062
     4.2872   4.5416   4.9101   5.1784   5.4399   5.4777   5.7280   5.8625
     6.0431   7.3916   7.7128   8.3879   9.5984  10.1614  10.6555  11.4394
    12.2279  13.2184  14.3735  16.2504

          k = 0.5000 0.2165-0.0673 (  4394 PWs)   bands (ev):

   -98.8345 -98.1228 -98.0255 -97.5870 -50.2520 -50.1884 -50.0551 -49.5154
   -49.4597 -49.4001 -49.3943 -49.3174 -49.3028 -48.9953 -48.8826 -48.8069
   -17.0688  -2.2509  -1.5135  -0.2193   0.3038   0.6749   0.9201   1.0700
     1.1826   1.6183   2.1109   2.6928   2.9037   3.1328   3.3331   3.6916
     4.2968   4.5239   4.9232   5.1504   5.4312   5.4749   5.7531   5.8378
     6.0500   7.3351   7.6850   8.3994   9.5934  10.1695  10.7115  11.4291
    12.2297  13.2023  14.4282  16.2506

          k = 0.4375-0.1804-0.0673 (  4416 PWs)   bands (ev):

   -98.8351 -98.1234 -98.0261 -97.5876 -50.2423 -50.1900 -50.0494 -49.5036
   -49.4566 -49.3948 -49.3899 -49.3173 -49.2995 -48.9836 -48.8794 -48.8080
   -17.1041  -2.4263  -1.3505  -0.1776   0.3655   0.6811   0.9382   1.1153
     1.2789   1.6431   2.1220   2.7329   2.8889   3.1461   3.3110   3.6312
     4.0610   4.3905   4.7606   4.9274   5.1109   5.3602   5.4679   5.6808
     5.8759   6.4990   7.2009   7.6121   9.1125  10.6157  11.3972  11.8389
    12.9031  14.2706  15.2966  16.2266

          k =-0.3750-0.2887-0.0673 (  4416 PWs)   bands (ev):

   -98.8351 -98.1234 -98.0261 -97.5876 -50.2363 -50.1901 -50.0552 -49.5036
   -49.4567 -49.3954 -49.3897 -49.3172 -49.2993 -48.9841 -48.8788 -48.8080
   -17.1042  -2.4023  -1.3427  -0.1597   0.3936   0.6633   0.9370   1.1000
     1.2719   1.6299   2.0888   2.6536   2.8904   3.1038   3.2775   3.6507
     4.0306   4.5054   4.7075   4.9829   5.1257   5.3793   5.4501   5.7090
     5.8566   6.4820   7.1520   7.8258   9.0799  10.5876  11.3190  11.8423
    12.9269  14.2643  15.2448  16.3010

          k = 0.3125-0.1083-0.0673 (  4460 PWs)   bands (ev):

   -98.8376 -98.1259 -98.0286 -97.5901 -50.1971 -50.1962 -50.0293 -49.4612
   -49.4488 -49.3768 -49.3537 -49.3169 -49.2855 -48.9333 -48.8653 -48.8128
   -17.2514  -2.9803  -0.9783   0.0344   0.1563   0.7303   0.9084   1.2889
     1.6896   1.7593   2.2230   2.4443   2.7666   3.0379   3.1619   3.4362
     3.5476   3.7787   3.9225   4.1160   4.4252   4.5721   4.8414   5.0175
     5.3092   5.5621   5.7741   7.5150   8.5650  10.1101  11.0322  12.8384
    14.3753  14.8728  15.9007  16.2779

          k =-0.2500-0.2165-0.0673 (  4460 PWs)   bands (ev):

   -98.8376 -98.1259 -98.0286 -97.5900 -50.1973 -50.1835 -50.0417 -49.4611
   -49.4486 -49.3771 -49.3544 -49.3169 -49.2848 -48.9347 -48.8639 -48.8128
   -17.2516  -2.9685  -0.9716   0.0898   0.1676   0.7693   0.8463   1.2739
     1.6655   1.7636   2.1822   2.4375   2.7490   2.9693   3.1733   3.4411
     3.6517   3.7870   3.9437   4.0952   4.4357   4.5222   4.8329   5.0195
     5.3043   5.5273   5.7311   7.4389   8.8420  10.0337  11.0104  12.8400
    14.3899  14.8587  15.9398  16.2831

          k = 0.1875-0.0361-0.0673 (  4490 PWs)   bands (ev):

   -98.8405 -98.1289 -98.0315 -97.5930 -50.2056 -50.1399 -50.0069 -49.4678
   -49.3911 -49.3587 -49.3209 -49.2945 -49.2690 -48.8733 -48.8488 -48.8185
   -17.4184  -3.5939  -1.2544  -0.7345   0.3394   0.4783   1.0855   1.2200
     1.2713   2.1102   2.2994   2.6614   2.7832   2.8697   2.9784   3.2723
     3.3758   3.4661   3.6109   3.8124   4.0642   4.1595   4.4455   4.6381
     4.8321   5.2487   5.5689   6.3635   8.5054  10.2676  11.3306  11.9576
    13.1356  13.5739  15.0345  15.7116

          k =-0.1250-0.1443-0.0673 (  4490 PWs)   bands (ev):

   -98.8405 -98.1289 -98.0315 -97.5930 -50.2057 -50.1259 -50.0206 -49.4678
   -49.3907 -49.3591 -49.3210 -49.2961 -49.2674 -48.8763 -48.8458 -48.8185
   -17.4185  -3.6021  -1.2611  -0.7397   0.3471   0.5948   1.0933   1.2183
     1.2315   2.1162   2.3070   2.6594   2.8296   2.9068   2.9878   3.2442
     3.3738   3.4645   3.5995   3.7829   4.0016   4.1090   4.4222   4.6166
     4.8218   5.2308   5.5670   6.3078   8.5193  10.5339  11.2112  11.9386
    13.1429  13.5495  15.0507  15.6944

          k = 0.0000-0.0722-0.0673 (  4520 PWs)   bands (ev):

   -98.8422 -98.1306 -98.0332 -97.5947 -50.2105 -50.1006 -50.0012 -49.4742
   -49.3543 -49.3495 -49.3228 -49.2643 -49.2566 -48.8443 -48.8341 -48.8219
   -17.5101  -3.9636  -1.7298  -1.1543  -0.1566   0.5955   0.7395   1.3131
     1.3804   2.3133   2.5055   2.6637   2.8790   2.9965   3.0260   3.1526
     3.1755   3.5498   3.6600   3.8203   3.9352   3.9795   4.5196   4.5661
     4.9937   5.1705   5.5426   5.6299   7.4389  11.1270  11.4300  11.8181
    12.5969  12.9513  14.5969  15.0392

          k = 0.3750 0.0000-0.0673 (  4450 PWs)   bands (ev):

   -98.8366 -98.1249 -98.0276 -97.5891 -50.2131 -50.1943 -50.0383 -49.4655
   -49.4515 -49.3940 -49.3607 -49.3166 -49.3008 -48.9427 -48.8811 -48.8109
   -17.1954  -2.7900  -0.9871   0.0241   0.5555   0.6914   1.1175   1.5998
     1.7197   1.9277   2.1618   2.2203   2.7092   2.8672   2.9800   3.2617
     3.3354   3.7387   3.9641   4.0505   4.6421   4.7142   5.0050   5.4446
     5.5837   5.8906   6.4122   7.9555   8.3976  10.5603  10.6209  13.3708
    14.8890  15.4256  15.9338  16.1870

          k =-0.3125 0.3969-0.0673 (  4428 PWs)   bands (ev):

   -98.8345 -98.1228 -98.0255 -97.5870 -50.2202 -50.1886 -50.0867 -49.4938
   -49.4519 -49.4189 -49.3864 -49.3233 -49.3158 -48.9758 -48.9026 -48.8068
   -17.0703  -2.2477  -1.1506  -0.1077   0.3120   1.0181   1.2264   1.4466
     1.7184   1.8109   2.1767   2.4345   2.5768   2.9151   3.1333   3.4356
     3.7751   4.0654   4.2254   4.4128   4.8139   5.1721   5.4025   5.7421
     5.9155   7.5360   8.1342   8.3729   9.7310  10.0805  11.8773  12.3185
    13.1886  14.2075  15.1633  15.6279

          k = 0.5000 0.0722-0.0673 (  4428 PWs)   bands (ev):

   -98.8345 -98.1228 -98.0255 -97.5870 -50.2408 -50.1883 -50.0667 -49.4941
   -49.4517 -49.4183 -49.3857 -49.3247 -49.3155 -48.9737 -48.9047 -48.8068
   -17.0700  -2.3059  -1.1959  -0.1120   0.2633   1.0446   1.2961   1.4090
     1.7211   1.9124   2.2300   2.5011   2.6304   2.9304   3.1778   3.4382
     3.7664   4.1044   4.2226   4.4147   4.7833   5.1303   5.3020   5.8513
     5.8897   7.4367   7.6039   8.5192   9.8687  10.2712  11.8499  12.3646
    13.1570  14.3745  15.1653  15.6802

          k =-0.4375 0.4691-0.0673 (  4432 PWs)   bands (ev):

   -98.8340 -98.1223 -98.0250 -97.5865 -50.2427 -50.1870 -50.0777 -49.5009
   -49.4525 -49.4238 -49.3909 -49.3297 -49.3159 -48.9810 -48.9102 -48.8058
   -17.0402  -2.1463  -1.2682  -0.1683   0.1990   1.0244   1.2751   1.3730
     1.6672   2.0070   2.1694   2.3948   2.6269   3.0399   3.2893   3.4491
     3.8373   4.2683   4.5080   4.5795   4.9991   5.1613   5.4617   5.7761
     5.9094   7.4148   8.7613   9.5918   9.8709  10.4045  11.1767  11.7758
    12.9168  13.3750  14.4501  15.8484

          k = 0.6250 0.1443-0.0673 (  4432 PWs)   bands (ev):

   -98.8340 -98.1223 -98.0250 -97.5865 -50.2357 -50.1871 -50.0846 -49.5008
   -49.4526 -49.4240 -49.3911 -49.3293 -49.3159 -48.9818 -48.9094 -48.8058
   -17.0403  -2.1199  -1.2532  -0.1816   0.2327   1.0199   1.2428   1.3974
     1.6641   1.9387   2.1618   2.3738   2.5893   3.0475   3.2722   3.4356
     3.8404   4.2640   4.4933   4.5820   5.0081   5.2402   5.4493   5.7318
     5.9037   7.7192   8.7200   9.5179   9.7511  10.4396  11.1596  11.7815
    12.8781  13.4259  14.3346  15.7704

          k = 0.4375-0.0361-0.0673 (  4450 PWs)   bands (ev):

   -98.8354 -98.1237 -98.0264 -97.5879 -50.2304 -50.1909 -50.0528 -49.4814
   -49.4514 -49.4080 -49.3753 -49.3177 -49.3126 -48.9605 -48.8943 -48.8085
   -17.1249  -2.5334  -1.0893  -0.0510   0.4422   0.9590   1.2395   1.4946
     1.7447   1.9206   2.1421   2.4963   2.7106   2.8018   2.9670   3.4582
     3.5778   3.7837   4.0233   4.1910   4.6731   5.0210   5.1247   5.7012
     5.8116   6.6378   7.3686   7.7314   9.0833  10.2423  11.2614  13.7950
    14.4172  14.9535  15.6270  15.8976

          k =-0.2500-0.3608-0.0673 (  4450 PWs)   bands (ev):

   -98.8354 -98.1237 -98.0264 -97.5879 -50.1979 -50.1913 -50.0845 -49.4809
   -49.4516 -49.4087 -49.3767 -49.3167 -49.3117 -48.9638 -48.8910 -48.8086
   -17.1253  -2.4781  -1.0302   0.0469   0.3713   0.9202   1.2294   1.4980
     1.7668   1.8580   2.1145   2.4359   2.6294   2.7586   2.9204   3.4715
     3.5882   3.7214   3.9458   4.2942   4.6384   5.0643   5.2505   5.6366
     5.8072   6.5671   7.1893   8.4161   9.0501  10.0217  11.1748  13.8298
    14.4269  14.8772  15.5973  15.8199

          k = 0.3125 0.0361-0.0673 (  4452 PWs)   bands (ev):

   -98.8379 -98.1262 -98.0289 -97.5904 -50.1980 -50.1910 -50.0258 -49.4601
   -49.4399 -49.3793 -49.3436 -49.3165 -49.2877 -48.9224 -48.8677 -48.8134
   -17.2706  -3.0529  -0.9394   0.0270   0.1765   0.8501   0.9233   1.4406
     1.7632   1.8987   2.0929   2.3486   2.5514   2.9504   3.1392   3.1847
     3.3305   3.6742   3.8501   4.0406   4.3870   4.5657   4.7866   5.0076
     5.3415   5.4807   5.7953   7.4354   8.6481  10.1509  10.9014  12.7180
    14.2025  14.7161  15.8459  16.7342

          k =-0.1250-0.2887-0.0673 (  4452 PWs)   bands (ev):

   -98.8379 -98.1262 -98.0289 -97.5904 -50.1985 -50.1444 -50.0714 -49.4601
   -49.4392 -49.3801 -49.3459 -49.3166 -49.2852 -48.9270 -48.8631 -48.8134
   -17.2711  -3.0563  -0.9362  -0.0322   0.3217   0.7827   1.1335   1.4677
     1.8013   1.9059   2.1647   2.3514   2.5045   2.8427   3.0386   3.1718
     3.2870   3.7006   3.9142   3.9940   4.3610   4.4225   4.7146   5.0065
     5.3388   5.4616   5.6294   7.2084   9.3457   9.9337  10.9749  12.6733
    14.2319  14.6677  15.9321  16.7348

          k = 0.0000-0.2165-0.0673 (  4480 PWs)   bands (ev):

   -98.8401 -98.1284 -98.0310 -97.5925 -50.2044 -50.1122 -50.0473 -49.4660
   -49.4015 -49.3614 -49.3219 -49.3069 -49.2680 -48.8894 -48.8457 -48.8176
   -17.3910  -3.5148  -1.1692  -0.6172   0.3554   0.6688   1.1507   1.2687
     1.3994   2.0539   2.4060   2.5945   2.7278   2.9418   3.0295   3.2573
     3.3572   3.4258   3.6825   3.7969   3.8585   4.1894   4.4048   4.5700
     4.9950   5.0308   5.6452   6.4084   8.7454  10.4176  11.5885  11.7157
    13.3272  13.7088  15.2049  15.8950

          k = 0.6250 0.0000-0.0673 (  4434 PWs)   bands (ev):

   -98.8335 -98.1218 -98.0246 -97.5860 -50.2292 -50.1858 -50.1030 -49.4794
   -49.4580 -49.4463 -49.3772 -49.3591 -49.3154 -48.9588 -48.9443 -48.8049
   -17.0139  -2.0224  -0.9214  -0.4391   0.0293   1.4142   1.5715   1.7245
     1.9277   2.1233   2.2855   2.3517   2.4462   2.8073   3.1547   3.7200
     3.8389   3.9192   4.0609   4.3725   4.6023   5.1438   5.4407   5.5842
     5.8548   7.6298   9.0509   9.8904  10.8433  11.0406  11.2379  12.6110
    12.7979  13.5825  14.4366  15.0220

          k =-0.4375 0.6134-0.0673 (  4444 PWs)   bands (ev):

   -98.8339 -98.1222 -98.0249 -97.5864 -50.2386 -50.1867 -50.0851 -49.4898
   -49.4491 -49.4385 -49.3832 -49.3434 -49.3155 -48.9693 -48.9251 -48.8056
   -17.0336  -2.1360  -1.1055  -0.1468   0.0086   1.2976   1.4290   1.7006
     1.8723   2.0437   2.2182   2.3857   2.5007   2.9700   3.0287   3.6122
     3.7363   4.0535   4.1553   4.3522   4.6642   5.1002   5.4063   5.7863
     5.9140   7.3809   8.7251   9.4784   9.8577  11.1697  11.5856  12.3041
    13.2020  13.5654  14.6213  14.9601

          k = 0.7500 0.0722-0.0673 (  4444 PWs)   bands (ev):

   -98.8339 -98.1222 -98.0249 -97.5864 -50.1967 -50.1870 -50.1262 -49.4890
   -49.4495 -49.4393 -49.3852 -49.3408 -49.3156 -48.9740 -48.9204 -48.8056
   -17.0341  -2.0769  -1.0060  -0.2248   0.0658   1.2351   1.3371   1.6611
     1.8322   2.1244   2.1705   2.3842   2.6379   2.9262   3.0297   3.5079
     3.6570   4.0294   4.1246   4.2517   4.6821   5.2007   5.4900   5.6719
     5.8493   8.1385   8.7167   9.0153   9.8041  11.1348  11.5324  12.2718
    13.2002  13.3933  14.6013  15.0756

          k = 0.4375 0.1083-0.0673 (  4428 PWs)   bands (ev):

   -98.8353 -98.1236 -98.0263 -97.5878 -50.2353 -50.1906 -50.0509 -49.4913
   -49.4535 -49.4003 -49.3834 -49.3168 -49.3064 -48.9709 -48.8867 -48.8084
   -17.1175  -2.4966  -1.1981  -0.1167   0.4751   0.7790   1.0850   1.2647
     1.4852   1.8105   2.1801   2.6347   2.7888   2.9670   3.3030   3.3804
     3.7945   4.0926   4.3513   4.5295   4.8389   5.0265   5.2350   5.6919
     5.8041   6.5759   7.2947   7.6697   9.0586  10.4073  11.3257  12.8626
    13.7925  14.6952  15.5618  16.1206

          k =-0.1250-0.4330-0.0673 (  4428 PWs)   bands (ev):

   -98.8353 -98.1236 -98.0263 -97.5878 -50.1913 -50.1598 -50.1249 -49.4906
   -49.4540 -49.4013 -49.3851 -49.3168 -49.3040 -48.9755 -48.8821 -48.8084
   -17.1183  -2.4699  -1.1160  -0.2126   0.4901   0.8645   1.1206   1.2948
     1.6716   1.8147   2.1876   2.5211   2.8569   2.9205   3.1998   3.3007
     3.6517   3.9774   4.3509   4.4884   4.8075   5.1103   5.2837   5.5835
     5.7889   6.4002   6.9442   8.1949   9.2893  10.3794  11.1815  12.7994
    13.7446  14.6576  15.5684  16.0113

          k = 0.0000-0.3608-0.0673 (  4442 PWs)   bands (ev):

   -98.8370 -98.1253 -98.0280 -97.5894 -50.1960 -50.1285 -50.1119 -49.4689
   -49.4544 -49.3781 -49.3693 -49.3173 -49.2841 -48.9525 -48.8619 -48.8116
   -17.2163  -2.8764  -1.0050  -0.2899   0.4011   0.9318   0.9442   1.2957
     1.6202   1.8579   2.2075   2.7130   2.9107   3.0420   3.0998   3.3129
     3.6913   3.8750   4.0649   4.3414   4.5316   4.7913   4.8658   5.0638
     5.3545   5.4233   5.6784   7.3465   9.2017  10.0278  11.2758  13.0068
    14.7261  15.0610  15.0999  16.0053

          k = 0.8750 0.0000-0.0673 (  4420 PWs)   bands (ev):

   -98.8343 -98.1225 -98.0252 -97.5867 -50.1884 -50.1575 -50.1556 -49.5103
   -49.4578 -49.4083 -49.3980 -49.3169 -49.3118 -48.9952 -48.8901 -48.8063
   -17.0532  -2.1598  -1.3537  -0.3008   0.4048   0.8357   1.0265   1.1875
     1.6264   1.7737   2.0237   2.3295   2.9013   3.1345   3.2434   3.8035
     3.9119   4.1221   4.7318   5.0061   5.2853   5.3584   5.6219   5.7632
     5.8736   7.2531   8.6208   9.1714   9.8154  10.2467  10.4068  11.5843
    12.1431  13.6145  13.9110  16.4709

          k = 0.0000-0.5052-0.0673 (  4396 PWs)   bands (ev):

   -98.8348 -98.1231 -98.0258 -97.5873 -50.1902 -50.1571 -50.1400 -49.5119
   -49.4601 -49.4000 -49.3899 -49.3177 -49.2954 -48.9966 -48.8734 -48.8075
   -17.0879  -2.3501  -1.3895  -0.4592   0.5794   0.7834   0.8257   0.9998
     1.4719   1.7044   2.0319   2.4915   2.8908   2.9475   3.5990   3.6564
     4.2567   4.5736   4.9086   4.9275   5.4619   5.5866   5.6178   5.7801
     6.1441   6.1553   7.0151   7.9889   9.5117  10.7500  11.0464  11.4982
    12.1245  13.4939  15.0480  15.9639

     the Fermi energy is     7.6046 ev

!    total energy              =   -1158.81711583 Ry
     Harris-Foulkes estimate   =   -1158.81711610 Ry
     estimated scf accuracy    <       0.00000033 Ry

     The total energy is the sum of the following terms:

     one-electron contribution =   -6246.66954805 Ry
     hartree contribution      =    3128.34056559 Ry
     xc contribution           =    -113.43141424 Ry
     ewald contribution        =    2088.65517098 Ry
     one-center paw contrib.   =     -15.71053960 Ry
     smearing contrib. (-TS)   =      -0.00135052 Ry

     convergence has been achieved in  13 iterations

     Forces acting on atoms (Ry/au):


     negative rho (up, down):  1.458E-04 0.000E+00
     atom    1 type  1   force =     0.00000000    0.00015792   -0.01925276
     atom    2 type  1   force =     0.00000000   -0.00001258    0.00134720
     atom    3 type  1   force =     0.00000000    0.00100659    0.00024237
     atom    4 type  1   force =     0.00000000   -0.00099254    0.02655672
     atom    5 type  2   force =     0.00000000   -0.00069991   -0.14786504
     atom    6 type  3   force =     0.00000000    0.00054052    0.13897151

     Total force =     0.205567     Total SCF correction =     0.005073

     BFGS Geometry Optimization

     number of scf cycles    =   1
     number of bfgs steps    =   0

     energy   new            =   -1158.8171158339 Ry

     new trust radius        =       0.1478666949 bohr
     new conv_thr            =       0.0000010000 Ry


ATOMIC_POSITIONS (alat)
Au      -0.000000000   0.000028981  -0.003533265
Au       0.500000000   0.288672692   0.816744238
Au       0.000000000   0.577534729   1.633037480
Au       0.000000000  -0.000182151   2.454363686
C        0.500000000  -0.000128447   3.046597821
O        0.500001000   0.001099197   3.490347040



     Writing output data file CO_Au_bridge.save
     Check: negative starting charge=   -0.000179
     NEW-OLD atomic charge density approx. for the potential

     Check: negative/imaginary core charge=   -0.000003    0.000000
     Check: negative starting charge=   -0.000176

     negative rho (up, down):  9.930E-05 0.000E+00

     total cpu time spent up to now is     2548.0 secs

     per-process dynamical memory:   343.0 Mb

     Self-consistent Calculation

     iteration #  1     ecut=    40.00 Ry     beta=0.70
     Davidson diagonalization with overlap
     ethr =  1.00E-06,  avg # of iterations =  6.0

     negative rho (up, down):  1.094E-04 0.000E+00

     total cpu time spent up to now is     2858.2 secs

     total energy              =   -1158.70630279 Ry
     Harris-Foulkes estimate   =   -1158.76537711 Ry
     estimated scf accuracy    <       0.10941999 Ry

     iteration #  2     ecut=    40.00 Ry     beta=0.70
     Davidson diagonalization with overlap
     ethr =  1.27E-04,  avg # of iterations =  4.8

     negative rho (up, down):  3.219E-04 0.000E+00

     total cpu time spent up to now is     3054.7 secs

     total energy              =   -1157.49663197 Ry
     Harris-Foulkes estimate   =   -1159.59153116 Ry
     estimated scf accuracy    <      32.83280635 Ry

     iteration #  3     ecut=    40.00 Ry     beta=0.70
     Davidson diagonalization with overlap
     ethr =  1.27E-04,  avg # of iterations =  4.7

     negative rho (up, down):  1.367E-04 0.000E+00

     total cpu time spent up to now is     3259.8 secs

     total energy              =   -1158.69038102 Ry
     Harris-Foulkes estimate   =   -1158.84999936 Ry
     estimated scf accuracy    <       2.00307440 Ry

     iteration #  4     ecut=    40.00 Ry     beta=0.70
     Davidson diagonalization with overlap
     ethr =  1.27E-04,  avg # of iterations =  4.1

     negative rho (up, down):  1.106E-04 0.000E+00

     total cpu time spent up to now is     3422.3 secs

     total energy              =   -1158.77097108 Ry
     Harris-Foulkes estimate   =   -1158.79285787 Ry
     estimated scf accuracy    <       0.12562979 Ry

     iteration #  5     ecut=    40.00 Ry     beta=0.70
     Davidson diagonalization with overlap
     ethr =  1.27E-04,  avg # of iterations =  3.1

     negative rho (up, down):  1.192E-04 0.000E+00

     total cpu time spent up to now is     3535.2 secs

     total energy              =   -1158.77595707 Ry
     Harris-Foulkes estimate   =   -1158.79338937 Ry
     estimated scf accuracy    <       0.08927474 Ry

     iteration #  6     ecut=    40.00 Ry     beta=0.70
     Davidson diagonalization with overlap
     ethr =  1.04E-04,  avg # of iterations =  2.4

     negative rho (up, down):  1.180E-04 0.000E+00

     total cpu time spent up to now is     3644.4 secs

     total energy              =   -1158.78370057 Ry
     Harris-Foulkes estimate   =   -1158.78413358 Ry
     estimated scf accuracy    <       0.00234156 Ry

     iteration #  7     ecut=    40.00 Ry     beta=0.70
     Davidson diagonalization with overlap
     ethr =  2.72E-06,  avg # of iterations =  3.3

     negative rho (up, down):  1.167E-04 0.000E+00

     total cpu time spent up to now is     3769.3 secs

     total energy              =   -1158.78381093 Ry
     Harris-Foulkes estimate   =   -1158.78416264 Ry
     estimated scf accuracy    <       0.00142233 Ry

     iteration #  8     ecut=    40.00 Ry     beta=0.70
     Davidson diagonalization with overlap
     ethr =  1.65E-06,  avg # of iterations =  2.2

     negative rho (up, down):  1.165E-04 0.000E+00

     total cpu time spent up to now is     3876.8 secs

     total energy              =   -1158.78394916 Ry
     Harris-Foulkes estimate   =   -1158.78398584 Ry
     estimated scf accuracy    <       0.00009947 Ry

     iteration #  9     ecut=    40.00 Ry     beta=0.70
     Davidson diagonalization with overlap
     ethr =  1.16E-07,  avg # of iterations =  2.0

     negative rho (up, down):  1.164E-04 0.000E+00

     total cpu time spent up to now is     3999.0 secs

     total energy              =   -1158.78396263 Ry
     Harris-Foulkes estimate   =   -1158.78397414 Ry
     estimated scf accuracy    <       0.00003428 Ry

     iteration # 10     ecut=    40.00 Ry     beta=0.70
     Davidson diagonalization with overlap
     ethr =  3.99E-08,  avg # of iterations =  2.0

     negative rho (up, down):  1.163E-04 0.000E+00

     total cpu time spent up to now is     4114.6 secs

     total energy              =   -1158.78396764 Ry
     Harris-Foulkes estimate   =   -1158.78397080 Ry
     estimated scf accuracy    <       0.00000788 Ry

     iteration # 11     ecut=    40.00 Ry     beta=0.70
     Davidson diagonalization with overlap
     ethr =  9.17E-09,  avg # of iterations =  2.0

     negative rho (up, down):  1.163E-04 0.000E+00

     total cpu time spent up to now is     4236.5 secs

     End of self-consistent calculation

          k = 0.0625 0.1083-0.0673 (  4518 PWs)   bands (ev):

   -99.3791 -98.5637 -98.4581 -98.0151 -50.7588 -50.6629 -50.5069 -49.9035
   -49.7999 -49.7861 -49.7471 -49.7002 -49.6862 -49.2763 -49.2610 -49.2381
   -14.7258  -4.3881  -1.8125  -0.8305  -0.2987   0.4055   0.9781   1.6935
     1.9238   2.1382   2.2720   2.3965   2.5472   2.6401   2.8890   2.9358
     3.0281   3.2042   3.3331   3.4407   3.5676   3.8995   4.1033   4.2172
     4.4706   4.7944   5.1169   5.4293   7.5235  10.2920  10.7239  11.2566
    12.9185  13.4583  14.9823  15.2699

          k = 0.0625 0.2526-0.0673 (  4466 PWs)   bands (ev):

   -99.3767 -98.5612 -98.4556 -98.0126 -50.7520 -50.6769 -50.5589 -49.8947
   -49.8511 -49.8020 -49.7538 -49.7407 -49.7003 -49.3276 -49.2749 -49.2331
   -14.5558  -3.8327  -0.8757  -0.2530   0.3832   0.9649   1.1712   1.3368
     1.6380   1.8786   2.0788   2.1877   2.5053   2.7337   2.8725   2.9235
     3.0086   3.2039   3.4578   3.5937   3.7525   3.8923   4.0953   4.3078
     4.5377   4.8663   5.1604   6.3575   8.7504   9.3820  10.5873  11.8088
    13.8425  14.3715  15.6937  16.2596

          k = 0.0625 0.3969-0.0673 (  4438 PWs)   bands (ev):

   -99.3737 -98.5582 -98.4527 -98.0096 -50.7441 -50.6926 -50.6205 -49.9134
   -49.8858 -49.8201 -49.8047 -49.7420 -49.7171 -49.3870 -49.2919 -49.2273
   -14.3456  -3.1471  -0.2154   0.0697   0.3425   0.6015   0.9831   1.2250
     1.5753   1.7423   2.0251   2.3668   2.6175   2.8135   2.9153   3.1134
     3.4398   3.7057   3.9947   4.0410   4.3165   4.4458   4.7073   4.9710
     5.1088   5.3139   5.5910   7.2672   8.5275   9.9972  10.3457  12.9290
    13.7206  14.5591  15.5900  15.9476

          k = 0.0625 0.5413-0.0673 (  4394 PWs)   bands (ev):

   -99.3721 -98.5565 -98.4511 -98.0079 -50.7397 -50.7005 -50.6563 -49.9466
   -49.8900 -49.8303 -49.8268 -49.7421 -49.7266 -49.4202 -49.3015 -49.2240
   -14.2212  -2.7048  -0.3945  -0.1427   0.3034   0.5155   0.7006   1.1653
     1.4669   1.5540   1.8989   2.1989   2.5357   2.8874   3.2584   3.6087
     3.7878   4.1091   4.3614   4.7910   4.9921   5.0659   5.3095   5.3619
     5.6291   6.2541   7.3423   8.0566   9.1959   9.9232  10.0751  10.9663
    11.7428  12.7373  14.0168  15.8704

          k = 0.0625-0.4691-0.0673 (  4416 PWs)   bands (ev):

   -99.3727 -98.5571 -98.4516 -98.0085 -50.7412 -50.6979 -50.6435 -49.9348
   -49.8874 -49.8268 -49.8201 -49.7420 -49.7233 -49.4086 -49.2981 -49.2251
   -14.2654  -2.8688  -0.2639  -0.0867   0.3184   0.5564   0.7998   1.1824
     1.4941   1.6295   1.9578   2.2599   2.5896   2.9094   3.1192   3.4746
     3.6503   3.8764   4.2216   4.5359   4.7792   4.8836   5.0389   5.1806
     5.3899   5.8142   6.3688   7.5123   8.8889  10.1331  10.7930  11.3853
    12.4082  13.8548  14.8686  16.0558

          k = 0.0625-0.3248-0.0673 (  4460 PWs)   bands (ev):

   -99.3751 -98.5597 -98.4541 -98.0110 -50.7479 -50.6852 -50.5909 -49.8927
   -49.8799 -49.8114 -49.7806 -49.7421 -49.7091 -49.3586 -49.2837 -49.2300
   -14.4480  -3.4842  -0.3995  -0.0297   0.5230   0.6851   1.1964   1.3085
     1.6643   1.8066   1.9583   2.3306   2.5189   2.6807   2.8456   3.0364
     3.1441   3.4339   3.5953   3.7808   3.9980   4.0318   4.3740   4.5822
     4.8742   5.0191   5.2209   6.8346   8.7518   9.4662  10.4493  12.4291
    14.5448  15.0714  15.6918  16.1806

          k = 0.0625-0.1804-0.0673 (  4490 PWs)   bands (ev):

   -99.3781 -98.5626 -98.4570 -98.0140 -50.7559 -50.6690 -50.5295 -49.8994
   -49.8222 -49.7932 -49.7462 -49.7215 -49.6923 -49.2988 -49.2669 -49.2359
   -14.6530  -4.1482  -1.4035  -0.5522   0.0359   0.7644   1.0412   1.4862
     1.7846   2.0545   2.2634   2.3575   2.4528   2.5101   2.9182   2.9905
     3.1080   3.1793   3.2164   3.4481   3.6437   3.8829   4.0186   4.2272
     4.3798   4.8102   5.1290   5.8769   8.1627   9.8540  10.6909  11.4216
    13.2902  13.8266  15.2738  15.6927

          k = 0.0625-0.0361-0.0673 (  4520 PWs)   bands (ev):

   -99.3797 -98.5643 -98.4587 -98.0156 -50.7604 -50.6596 -50.4946 -49.9058
   -49.7886 -49.7809 -49.7482 -49.6877 -49.6835 -49.2631 -49.2589 -49.2393
   -14.7646  -4.5179  -2.0306  -0.9912  -0.4858   0.1972   0.9537   1.8158
     1.9233   2.0645   2.3573   2.5235   2.5998   2.6484   2.7519   2.8993
     3.1384   3.2463   3.3170   3.5528   3.6778   3.9519   4.1085   4.1970
     4.5848   4.7785   5.1211   5.1997   7.0565  10.5749  10.6983  11.2121
    12.7321  13.2727  14.8325  15.0457

          k = 0.1875 0.3248-0.0673 (  4450 PWs)   bands (ev):

   -99.3742 -98.5587 -98.4532 -98.0101 -50.7450 -50.7221 -50.5802 -49.8971
   -49.8833 -49.8277 -49.7881 -49.7414 -49.7243 -49.3681 -49.2993 -49.2281
   -14.3787  -3.2002  -0.0286   0.2976   0.6002   0.7274   1.1603   1.2896
     1.5559   1.7202   1.7892   2.2460   2.3813   2.4968   2.7046   2.8528
     3.1553   3.3095   3.5817   3.7990   4.1629   4.4029   4.5374   4.9954
     5.1496   5.4205   5.8489   7.4972   8.5821   9.5953  10.1600  13.0310
    15.0843  15.4769  15.6621  15.9397

          k = 0.1875 0.4691-0.0673 (  4428 PWs)   bands (ev):

   -99.3721 -98.5565 -98.4511 -98.0079 -50.7394 -50.7296 -50.6282 -49.9253
   -49.8828 -49.8528 -49.8134 -49.7479 -49.7406 -49.3992 -49.3229 -49.2239
   -14.2228  -2.6395   0.0693   0.2288   0.5470   0.8165   1.1096   1.2197
     1.4675   1.6947   2.0266   2.1149   2.5420   2.6438   2.8555   2.9187
     3.2577   3.7303   3.8079   3.9754   4.3768   4.6877   5.0934   5.3432
     5.4601   6.9275   7.4958   8.2472   9.1256   9.6723  11.4110  11.8539
    12.6834  13.8799  14.8032  15.3318

          k = 0.1875 0.6134-0.0673 (  4432 PWs)   bands (ev):

   -99.3716 -98.5560 -98.4506 -98.0075 -50.7380 -50.7298 -50.6410 -49.9320
   -49.8833 -49.8584 -49.8185 -49.7534 -49.7407 -49.4061 -49.3288 -49.2229
   -14.1854  -2.4900  -0.0815   0.2178   0.5940   0.8195   1.0532   1.2002
     1.4631   1.6021   1.9367   2.0402   2.6852   2.7984   2.8917   3.0462
     3.2975   3.7635   4.0963   4.1382   4.5695   4.8508   5.0664   5.3383
     5.4931   7.1910   8.3464   8.9614   9.3011   9.9645  10.6424  11.3114
    12.3721  13.0405  14.0208  15.4834

          k = 0.1875-0.3969-0.0673 (  4450 PWs)   bands (ev):

   -99.3730 -98.5575 -98.4520 -98.0089 -50.7418 -50.7273 -50.6064 -49.9128
   -49.8828 -49.8420 -49.8030 -49.7415 -49.7369 -49.3861 -49.3124 -49.2257
   -14.2911  -2.8937   0.1997   0.3041   0.4738   0.7694   1.1629   1.3079
     1.5111   1.6771   2.0582   2.2319   2.3204   2.5215   2.6353   3.0118
     3.1496   3.3970   3.6835   3.8267   4.2323   4.6122   4.8763   5.1927
     5.3784   6.1172   6.7181   7.9501   8.7174   9.3752  10.7571  13.3628
    14.0260  14.4735  15.2597  16.0066

          k = 0.1875-0.2526-0.0673 (  4452 PWs)   bands (ev):

   -99.3754 -98.5600 -98.4544 -98.0114 -50.7485 -50.7144 -50.5537 -49.8916
   -49.8722 -49.8126 -49.7705 -49.7417 -49.7114 -49.3472 -49.2865 -49.2307
   -14.4715  -3.5144  -0.4661   0.1026   0.5361   0.8368   1.0575   1.3509
     1.4454   1.7541   1.9132   2.0978   2.4249   2.6836   2.8317   2.9377
     3.2329   3.3007   3.5322   3.6400   3.9605   4.0915   4.3553   4.5866
     4.9118   5.0306   5.3043   6.9371   8.7718   9.4539  10.1276  12.3663
    14.3953  14.9210  16.0720  16.6649

          k = 0.1875-0.1083-0.0673 (  4480 PWs)   bands (ev):

   -99.3775 -98.5621 -98.4566 -98.0135 -50.7542 -50.6991 -50.5132 -49.8977
   -49.8356 -49.7930 -49.7468 -49.7307 -49.6950 -49.3078 -49.2708 -49.2349
   -14.6189  -4.0070  -1.2522  -0.3958   0.1551   0.7718   0.9347   1.3726
     1.4956   1.9997   2.2402   2.4290   2.5505   2.6548   2.9010   2.9433
     3.1708   3.2620   3.3501   3.4300   3.7146   3.7978   4.1139   4.1603
     4.5768   4.7701   5.2126   6.1636   8.3961   9.5775  10.4039  11.6836
    13.4808  14.0293  15.4026  15.8927

          k = 0.3125 0.5413-0.0673 (  4434 PWs)   bands (ev):

   -99.3711 -98.5556 -98.4501 -98.0070 -50.7695 -50.7363 -50.6144 -49.9112
   -49.8919 -49.8775 -49.8040 -49.7834 -49.7400 -49.3842 -49.3626 -49.2220
   -14.1521  -2.3748   0.2408   0.4336   0.6309   0.9667   1.1825   1.4383
     1.4999   1.8017   2.0129   2.0677   2.3611   2.4882   2.7494   3.3005
     3.3550   3.4923   3.7169   3.9617   4.1733   4.8294   4.9963   5.1341
     5.6188   7.5906   8.0712   9.4253  10.4098  10.6233  10.8038  12.0700
    12.4502  13.2206  13.8121  14.7775

          k = 0.3125 0.6856-0.0673 (  4444 PWs)   bands (ev):

   -99.3714 -98.5559 -98.4504 -98.0073 -50.7710 -50.7372 -50.6041 -49.9222
   -49.8799 -49.8720 -49.8105 -49.7673 -49.7402 -49.3939 -49.3443 -49.2227
   -14.1769  -2.4687   0.0784   0.4065   0.6803   0.8838   1.1431   1.3645
     1.5787   1.7391   1.9134   2.0495   2.4077   2.5627   2.6832   3.1907
     3.3348   3.6211   3.7275   3.9491   4.2605   4.7858   5.0283   5.3160
     5.6065   7.6138   8.1152   8.5223   9.3786  10.7371  11.1879  11.8614
    12.7605  13.1332  14.0821  14.6417

          k = 0.3125-0.3248-0.0673 (  4428 PWs)   bands (ev):

   -99.3728 -98.5574 -98.4518 -98.0087 -50.7699 -50.7410 -50.5679 -49.9243
   -49.8846 -49.8328 -49.8106 -49.7414 -49.7308 -49.3946 -49.3067 -49.2255
   -14.2815  -2.8556  -0.2432   0.2890   0.5274   0.5932   0.8757   1.1275
     1.3386   1.6815   2.0276   2.2613   2.5712   2.7412   2.9101   3.0555
     3.4105   3.8154   3.9441   4.1202   4.4185   4.7255   4.8303   5.2784
     5.3573   6.1225   6.7959   7.7645   8.5942   9.5312  10.8471  12.4819
    13.4349  14.3046  15.1430  16.1376

          k = 0.3125-0.1804-0.0673 (  4442 PWs)   bands (ev):

   -99.3745 -98.5590 -98.4535 -98.0104 -50.7576 -50.7455 -50.5364 -49.9025
   -49.8863 -49.8097 -49.7932 -49.7422 -49.7111 -49.3710 -49.2871 -49.2288
   -14.4031  -3.2921  -0.4383   0.1063   0.3707   0.4916   0.8644   1.1298
     1.3404   1.7731   2.1889   2.5220   2.6474   2.7287   3.1419   3.2519
     3.3017   3.5423   3.8693   3.9800   4.1055   4.4216   4.4518   4.6403
     4.9303   5.2435   5.4233   7.4032   8.0693   9.6960  10.2985  12.7414
    14.6915  14.7968  15.4004  15.9809

          k = 0.4375 0.7578-0.0673 (  4420 PWs)   bands (ev):

   -99.3717 -98.5563 -98.4508 -98.0077 -50.8002 -50.7378 -50.5666 -49.9446
   -49.8870 -49.8397 -49.8244 -49.7418 -49.7385 -49.4138 -49.3154 -49.2234
   -14.1999  -2.6191  -0.4414   0.2347   0.3258   0.6078   0.7958   0.9623
     1.4278   1.6884   2.0410   2.2897   2.6415   2.7734   3.0553   3.2223
     3.6587   3.9851   4.3561   4.6595   4.8156   4.8784   5.2060   5.3948
     5.6045   6.8832   8.1621   8.7394   9.2987   9.4136  10.2087  11.2922
    11.8416  13.2702  13.4891  15.9652

          k = 0.4375-0.2526-0.0673 (  4396 PWs)   bands (ev):

   -99.3723 -98.5569 -98.4514 -98.0083 -50.7999 -50.7394 -50.5514 -49.9462
   -49.8893 -49.8264 -49.8214 -49.7422 -49.7224 -49.4152 -49.2986 -49.2246
   -14.2429  -2.7701  -0.6146   0.0929   0.1937   0.3863   0.6184   0.8470
     1.1566   1.7316   2.2812   2.5029   2.6710   2.9400   3.2217   3.2908
     3.9003   4.1995   4.3942   4.6050   5.0326   5.1876   5.2407   5.3559
     5.7215   6.2955   6.8777   7.2942   9.0149   9.8707  10.4724  11.2399
    11.8621  13.1885  14.6882  15.5940

          k = 0.1250 0.0000-0.0673 (  4518 PWs)   bands (ev):

   -99.3791 -98.5637 -98.4581 -98.0151 -50.7587 -50.6733 -50.4967 -49.9035
   -49.8021 -49.7838 -49.7471 -49.6992 -49.6872 -49.2739 -49.2634 -49.2381
   -14.7257  -4.3754  -1.8225  -0.8239  -0.2927   0.4050   0.9154   1.6493
     1.7655   2.0819   2.3162   2.4995   2.5598   2.6843   2.8989   2.9435
     3.0436   3.2322   3.3476   3.4149   3.6065   3.9164   4.0786   4.2680
     4.4717   4.8029   5.1341   5.4632   7.5353  10.2457  10.5613  11.3698
    12.9249  13.4681  14.9824  15.2763

          k =-0.1875 0.1804-0.0673 (  4466 PWs)   bands (ev):

   -99.3766 -98.5612 -98.4556 -98.0126 -50.7517 -50.7061 -50.5304 -49.8946
   -49.8529 -49.8003 -49.7535 -49.7405 -49.7010 -49.3261 -49.2764 -49.2331
   -14.5556  -3.7956  -0.9124  -0.1730   0.3613   0.7661   1.1403   1.2707
     1.4103   1.8858   2.0732   2.2508   2.5441   2.8193   2.8641   2.9538
     3.2030   3.2771   3.4107   3.6109   3.6616   3.9387   4.1365   4.3180
     4.5803   4.9382   5.1846   6.4938   8.7058   9.3886  10.3023  11.9216
    13.8475  14.3890  15.6867  16.2520

          k = 0.2500 0.0722-0.0673 (  4466 PWs)   bands (ev):

   -99.3766 -98.5612 -98.4556 -98.0126 -50.7515 -50.7222 -50.5149 -49.8946
   -49.8539 -49.7993 -49.7530 -49.7405 -49.7014 -49.3250 -49.2776 -49.2331
   -14.5554  -3.7942  -0.9335  -0.1416   0.3180   0.7324   1.1098   1.2649
     1.3962   1.8867   2.1078   2.3126   2.6549   2.7449   2.8287   2.9274
     3.1444   3.2988   3.4047   3.6024   3.6882   4.0235   4.1389   4.3155
     4.5774   5.0039   5.1837   6.5769   8.5934   9.3567  10.2848  11.9377
    13.8431  14.4021  15.6566  16.2708

          k =-0.3125 0.2526-0.0673 (  4438 PWs)   bands (ev):

   -99.3737 -98.5582 -98.4527 -98.0096 -50.7647 -50.7433 -50.5503 -49.9153
   -49.8859 -49.8182 -49.8040 -49.7419 -49.7180 -49.3850 -49.2938 -49.2272
   -14.3449  -3.0852  -0.3573   0.1842   0.4235   0.4795   0.8233   1.0807
     1.3077   1.6975   2.1275   2.4441   2.6439   2.7412   3.0511   3.2048
     3.3788   3.8697   4.0063   4.0846   4.2907   4.5065   4.7433   4.9959
     5.1818   5.3741   5.8551   7.7641   7.9798   9.7889  10.3771  12.9894
    13.7889  14.6463  15.5534  16.0146

          k = 0.3750 0.1443-0.0673 (  4438 PWs)   bands (ev):

   -99.3737 -98.5582 -98.4527 -98.0096 -50.7763 -50.7432 -50.5391 -49.9157
   -49.8859 -49.8174 -49.8041 -49.7420 -49.7181 -49.3845 -49.2944 -49.2272
   -14.3448  -3.1228  -0.3564   0.1834   0.3935   0.4441   0.8320   1.0925
     1.3349   1.7880   2.2436   2.4956   2.6271   2.8038   3.0708   3.1581
     3.3781   3.6646   4.0073   4.1140   4.2596   4.5058   4.7366   4.9871
     5.1913   5.3875   5.9143   7.6288   7.9501   9.8017  10.4517  12.9803
    13.7776  14.6505  15.5421  16.0461

          k =-0.4375 0.3248-0.0673 (  4394 PWs)   bands (ev):

   -99.3720 -98.5565 -98.4511 -98.0079 -50.8017 -50.7386 -50.5576 -49.9489
   -49.8895 -49.8292 -49.8253 -49.7420 -49.7275 -49.4180 -49.3037 -49.2240
   -14.2202  -2.6833  -0.6054   0.1290   0.2133   0.4371   0.6522   0.8459
     1.2172   1.7082   2.1930   2.4816   2.6340   2.8499   3.1731   3.3248
     3.8758   4.1200   4.4540   4.7712   5.0092   5.0496   5.3068   5.4875
     5.6200   6.8645   7.2812   7.9879   9.1897   9.6279  10.1460  11.0573
    11.8724  12.8218  13.9952  15.8660

          k = 0.5000 0.2165-0.0673 (  4394 PWs)   bands (ev):

   -99.3720 -98.5565 -98.4511 -98.0079 -50.8042 -50.7385 -50.5552 -49.9490
   -49.8895 -49.8286 -49.8258 -49.7420 -49.7275 -49.4179 -49.3038 -49.2240
   -14.2202  -2.7017  -0.5922   0.1395   0.1856   0.4369   0.6530   0.8461
     1.2201   1.7301   2.2275   2.4678   2.6495   2.8960   3.1621   3.3125
     3.9091   4.0910   4.4559   4.7430   4.9983   5.0477   5.3253   5.4606
     5.6289   6.7967   7.2604   7.9955   9.1775   9.6564  10.1841  11.0516
    11.8750  12.8026  14.0554  15.8629

          k = 0.4375-0.1804-0.0673 (  4416 PWs)   bands (ev):

   -99.3726 -98.5571 -98.4516 -98.0085 -50.7952 -50.7401 -50.5488 -49.9373
   -49.8872 -49.8243 -49.8198 -49.7420 -49.7242 -49.4061 -49.3005 -49.2251
   -14.2644  -2.8616  -0.4704   0.1661   0.2541   0.4562   0.7148   0.9359
     1.2578   1.7605   2.2723   2.4477   2.7018   2.8989   3.1125   3.2306
     3.6807   3.9548   4.3159   4.5027   4.6804   4.9336   5.0374   5.2541
     5.4547   6.0777   6.7545   7.2449   8.7808   9.8228  10.9801  11.4987
    12.5114  13.8980  14.9333  16.0306

          k =-0.3750-0.2887-0.0673 (  4416 PWs)   bands (ev):

   -99.3726 -98.5571 -98.4516 -98.0085 -50.7879 -50.7403 -50.5559 -49.9370
   -49.8871 -49.8253 -49.8191 -49.7419 -49.7242 -49.4064 -49.3002 -49.2251
   -14.2645  -2.8207  -0.4934   0.1591   0.3079   0.4605   0.7096   0.9337
     1.2444   1.6940   2.1686   2.4818   2.6514   2.8134   3.1241   3.2747
     3.6123   4.0954   4.2862   4.5578   4.6978   4.9548   5.0221   5.2878
     5.4383   6.0649   6.7393   7.4254   8.7599   9.7679  10.9359  11.4891
    12.5331  13.8908  14.8777  15.9716

          k = 0.3125-0.1083-0.0673 (  4460 PWs)   bands (ev):

   -99.3751 -98.5597 -98.4541 -98.0110 -50.7507 -50.7471 -50.5273 -49.8931
   -49.8821 -49.8087 -49.7797 -49.7421 -49.7101 -49.3560 -49.2863 -49.2300
   -14.4474  -3.4465  -0.4907   0.1199   0.3807   0.5924   0.9886   1.2407
     1.4512   1.7580   2.1301   2.3439   2.6386   2.7263   3.0361   3.1100
     3.2059   3.3452   3.5297   3.7267   3.9977   4.2130   4.4069   4.5917
     4.8832   5.1439   5.3919   7.1982   8.2200   9.6182  10.2056  12.4964
    14.5327  15.0966  15.7185  16.2393

          k =-0.2500-0.2165-0.0673 (  4460 PWs)   bands (ev):

   -99.3751 -98.5597 -98.4541 -98.0110 -50.7474 -50.7359 -50.5415 -49.8929
   -49.8817 -49.8095 -49.7800 -49.7420 -49.7098 -49.3568 -49.2855 -49.2300
   -14.4475  -3.4280  -0.4701   0.1019   0.4274   0.6212   1.0023   1.2108
     1.4217   1.7160   2.0459   2.2968   2.5458   2.7838   3.0191   3.1007
     3.3325   3.4916   3.5249   3.6790   4.0050   4.1557   4.4118   4.5969
     4.8797   5.1183   5.3444   7.1106   8.4614   9.5400  10.2019  12.4990
    14.5431  15.0909  15.7375  16.2684

          k = 0.1875-0.0361-0.0673 (  4490 PWs)   bands (ev):

   -99.3780 -98.5626 -98.4570 -98.0140 -50.7555 -50.6951 -50.5041 -49.8994
   -49.8249 -49.7905 -49.7462 -49.7205 -49.6933 -49.2961 -49.2696 -49.2359
   -14.6527  -4.1203  -1.4324  -0.5139   0.0362   0.7447   0.8728   1.4132
     1.5535   2.0716   2.2611   2.3715   2.5063   2.7749   2.8711   2.9667
     3.0617   3.1850   3.3406   3.4763   3.6632   3.8901   4.0409   4.2478
     4.4381   4.8553   5.1409   5.9921   8.1791   9.7300  10.4346  11.5809
    13.2977  13.8485  15.2599  15.7089

          k =-0.1250-0.1443-0.0673 (  4490 PWs)   bands (ev):

   -99.3781 -98.5626 -98.4570 -98.0140 -50.7557 -50.6804 -50.5183 -49.8994
   -49.8234 -49.7920 -49.7462 -49.7211 -49.6927 -49.2978 -49.2679 -49.2359
   -14.6529  -4.1328  -1.4156  -0.5345   0.0405   0.7547   0.9350   1.4846
     1.6252   2.0674   2.2708   2.4321   2.4678   2.5487   2.9276   2.9699
     3.1230   3.1754   3.3014   3.4491   3.6830   3.8108   4.0657   4.2036
     4.4359   4.8212   5.1383   5.9252   8.1718   9.8649  10.4785  11.5300
    13.2957  13.8354  15.2739  15.6917

          k = 0.0000-0.0722-0.0673 (  4520 PWs)   bands (ev):

   -99.3797 -98.5643 -98.4587 -98.0156 -50.7604 -50.6558 -50.4983 -49.9058
   -49.7859 -49.7836 -49.7482 -49.6886 -49.6826 -49.2649 -49.2570 -49.2393
   -14.7647  -4.5230  -2.0274  -0.9920  -0.4889   0.1973   0.9778   1.8143
     2.0094   2.1874   2.2158   2.4666   2.5979   2.7091   2.7406   2.8571
     3.1335   3.2629   3.2748   3.5587   3.6664   3.9567   4.1404   4.1603
     4.5829   4.7567   5.1185   5.1979   7.0520  10.5118  10.9922  11.0167
    12.7282  13.2690  14.8290  15.0461

          k = 0.3750 0.0000-0.0673 (  4450 PWs)   bands (ev):

   -99.3741 -98.5587 -98.4532 -98.0101 -50.7686 -50.7444 -50.5352 -49.8989
   -49.8838 -49.8252 -49.7874 -49.7417 -49.7250 -49.3657 -49.3017 -49.2281
   -14.3782  -3.2455  -0.1443   0.3042   0.5225   0.9181   0.9793   1.3283
     1.6340   1.7377   1.8286   2.2912   2.4139   2.5018   2.8445   2.9494
     3.1328   3.3207   3.5493   3.6069   4.1819   4.3253   4.6001   5.0141
     5.1521   5.4718   6.0202   7.7993   7.8597   9.7463  10.2105  13.0188
    15.0397  15.4458  15.7684  15.8951

          k =-0.3125 0.3969-0.0673 (  4428 PWs)   bands (ev):

   -99.3720 -98.5565 -98.4511 -98.0079 -50.7719 -50.7388 -50.5870 -49.9269
   -49.8826 -49.8514 -49.8130 -49.7484 -49.7406 -49.3978 -49.3244 -49.2239
   -14.2224  -2.6385  -0.0955   0.3580   0.6293   0.7863   0.9840   1.2868
     1.3998   1.7521   1.9558   2.0843   2.4526   2.6337   2.8217   3.0229
     3.3793   3.7194   3.8248   4.0110   4.3861   4.7436   5.0183   5.3848
     5.5196   7.1177   7.6712   7.9736   9.0239   9.6834  11.4585  11.9580
    12.7943  13.8009  14.7840  15.2337

          k = 0.5000 0.0722-0.0673 (  4428 PWs)   bands (ev):

   -99.3720 -98.5565 -98.4511 -98.0079 -50.7957 -50.7385 -50.5641 -49.9280
   -49.8827 -49.8498 -49.8129 -49.7495 -49.7400 -49.3965 -49.3256 -49.2239
   -14.2221  -2.7433  -0.0940   0.3119   0.5745   0.8736   1.0214   1.3333
     1.5250   1.8086   1.9422   2.1080   2.5190   2.6874   2.8542   3.0321
     3.3602   3.7285   3.8153   4.0173   4.3549   4.7023   4.9141   5.4481
     5.5152   6.9156   7.1986   8.1379   9.1885   9.8345  11.4259  12.0067
    12.7603  13.9861  14.7888  15.2908

          k =-0.4375 0.4691-0.0673 (  4432 PWs)   bands (ev):

   -99.3715 -98.5560 -98.4506 -98.0075 -50.7967 -50.7372 -50.5759 -49.9346
   -49.8831 -49.8558 -49.8181 -49.7546 -49.7404 -49.4036 -49.3313 -49.2229
   -14.1847  -2.5811  -0.1827   0.3281   0.5383   0.8462   0.9662   1.2672
     1.5908   1.6894   1.9225   2.0549   2.5364   2.8074   2.9163   3.0234
     3.4138   3.8839   4.0934   4.1699   4.5733   4.7664   5.0403   5.3498
     5.6775   6.8259   8.3387   8.9722   9.3835   9.9879  10.8069  11.3767
    12.5604  12.9784  14.0704  15.4461

          k = 0.6250 0.1443-0.0673 (  4432 PWs)   bands (ev):

   -99.3715 -98.5560 -98.4506 -98.0075 -50.7885 -50.7373 -50.5838 -49.9342
   -49.8830 -49.8564 -49.8181 -49.7542 -49.7406 -49.4041 -49.3309 -49.2229
   -14.1848  -2.5343  -0.2002   0.3394   0.5761   0.8186   0.9451   1.2703
     1.4785   1.7275   1.9308   2.0278   2.4855   2.8286   2.8799   3.0169
     3.4157   3.8889   4.0855   4.1683   4.5779   4.8280   5.0374   5.3300
     5.6413   7.1673   8.3056   8.8769   9.2927  10.0166  10.7921  11.3850
    12.5054  13.0461  13.9361  15.3838

          k = 0.4375-0.0361-0.0673 (  4450 PWs)   bands (ev):

   -99.3729 -98.5575 -98.4520 -98.0089 -50.7858 -50.7410 -50.5498 -49.9153
   -49.8830 -49.8391 -49.8024 -49.7427 -49.7367 -49.3835 -49.3150 -49.2257
   -14.2904  -2.9754  -0.0302   0.3062   0.6387   0.8655   1.0579   1.3480
     1.5166   1.7912   2.0076   2.2289   2.3294   2.5434   2.8362   3.1012
     3.1811   3.4190   3.6205   3.7833   4.2530   4.5719   4.7241   5.2821
     5.3820   6.2202   6.9462   7.3830   8.6969   9.4694  10.8838  13.3948
    14.0329  14.5680  15.3298  15.9326

          k =-0.2500-0.3608-0.0673 (  4450 PWs)   bands (ev):

   -99.3730 -98.5575 -98.4520 -98.0089 -50.7487 -50.7415 -50.5857 -49.9136
   -49.8828 -49.8413 -49.8028 -49.7413 -49.7373 -49.3853 -49.3131 -49.2257
   -14.2909  -2.8793   0.0796   0.3711   0.5674   0.7593   1.0623   1.2593
     1.5139   1.6682   1.9547   2.2084   2.3669   2.4979   2.6912   3.1027
     3.1922   3.4449   3.5514   3.9042   4.2405   4.6588   4.8398   5.2346
     5.3783   6.1580   6.8087   8.0381   8.5581   9.3221  10.7845  13.4346
    14.0378  14.4913  15.2152  15.9587

          k = 0.3125 0.0361-0.0673 (  4452 PWs)   bands (ev):

   -99.3754 -98.5600 -98.4544 -98.0114 -50.7481 -50.7463 -50.5228 -49.8918
   -49.8739 -49.8108 -49.7698 -49.7418 -49.7120 -49.3453 -49.2884 -49.2307
   -14.4712  -3.5285  -0.5149   0.1622   0.4134   0.7786   1.0995   1.3058
     1.4715   1.7990   1.9291   2.1734   2.5714   2.6926   2.8005   3.0114
     3.1606   3.2041   3.4353   3.6299   3.9466   4.2192   4.3786   4.5840
     4.9142   5.0513   5.4158   7.1171   8.3205   9.6550  10.0541  12.3759
    14.3787  14.9404  15.9955  16.6137

          k =-0.1250-0.2887-0.0673 (  4452 PWs)   bands (ev):

   -99.3755 -98.5600 -98.4544 -98.0114 -50.7487 -50.6965 -50.5712 -49.8917
   -49.8713 -49.8135 -49.7707 -49.7418 -49.7111 -49.3480 -49.2858 -49.2307
   -14.4717  -3.5368  -0.4419   0.0361   0.6012   0.8438   1.2053   1.3633
     1.5170   1.7247   1.9398   2.1093   2.4428   2.6674   2.7428   2.8677
     3.1092   3.3504   3.5461   3.6675   3.9787   4.0562   4.2966   4.5824
     4.9126   5.0358   5.2356   6.8443   8.8648   9.4097  10.2413  12.3378
    14.3957  14.9129  16.0774  16.6369

          k = 0.0000-0.2165-0.0673 (  4480 PWs)   bands (ev):

   -99.3776 -98.5621 -98.4566 -98.0135 -50.7546 -50.6673 -50.5441 -49.8977
   -49.8331 -49.7955 -49.7469 -49.7315 -49.6941 -49.3100 -49.2686 -49.2349
   -14.6192  -4.0452  -1.2159  -0.4558   0.1570   0.8866   1.0891   1.4526
     1.7449   2.0622   2.1697   2.2886   2.5131   2.5778   2.8556   2.9972
     3.0866   3.1601   3.3016   3.4401   3.6527   3.9114   3.9908   4.1860
     4.5773   4.6211   5.2106   6.0187   8.3879   9.6384  10.8013  11.4699
    13.4713  14.0060  15.4116  15.8892

          k = 0.6250 0.0000-0.0673 (  4434 PWs)   bands (ev):

   -99.3711 -98.5556 -98.4501 -98.0070 -50.7847 -50.7361 -50.5996 -49.9134
   -49.8900 -49.8772 -49.8034 -49.7842 -49.7400 -49.3818 -49.3650 -49.2220
   -14.1520  -2.4263   0.1392   0.5336   0.7062   0.9896   1.1887   1.4177
     1.5310   1.8268   1.9885   2.0425   2.3443   2.5034   2.7548   3.3007
     3.4107   3.4975   3.7028   3.9915   4.1686   4.7507   5.0109   5.1565
     5.7067   7.0436   8.4165   9.4685  10.4121  10.6221  10.8057  12.2235
    12.3855  13.1803  14.0553  14.6200

          k =-0.4375 0.6134-0.0673 (  4444 PWs)   bands (ev):

   -99.3714 -98.5559 -98.4504 -98.0073 -50.7939 -50.7369 -50.5819 -49.9237
   -49.8804 -49.8697 -49.8102 -49.7681 -49.7401 -49.3923 -49.3459 -49.2227
   -14.1766  -2.5640   0.0300   0.4023   0.7421   1.0098   1.1537   1.4248
     1.5458   1.7465   1.9368   2.0231   2.4602   2.5906   2.7090   3.2020
     3.3255   3.6341   3.7561   3.9784   4.2375   4.6994   5.0003   5.3555
     5.7153   6.7839   8.3066   8.8043   9.4505  10.7398  11.1818  11.9001
    12.7899  13.2106  14.2203  14.5874

          k = 0.7500 0.0722-0.0673 (  4444 PWs)   bands (ev):

   -99.3714 -98.5559 -98.4504 -98.0073 -50.7504 -50.7374 -50.6242 -49.9211
   -49.8801 -49.8730 -49.8108 -49.7669 -49.7403 -49.3949 -49.3432 -49.2227
   -14.1771  -2.4481   0.1801   0.4184   0.4854   0.9035   1.2420   1.3262
     1.4714   1.7812   1.9039   2.1326   2.4961   2.5511   2.6905   3.1363
     3.2468   3.6227   3.7966   3.8873   4.2521   4.7774   5.0587   5.3130
     5.5464   7.6356   8.2050   8.4727   9.3788  10.7133  11.1096  11.8534
    12.7863  12.9987  14.1968  14.6903

          k = 0.4375 0.1083-0.0673 (  4428 PWs)   bands (ev):

   -99.3728 -98.5574 -98.4518 -98.0088 -50.7896 -50.7407 -50.5489 -49.9251
   -49.8846 -49.8316 -49.8107 -49.7417 -49.7308 -49.3937 -49.3076 -49.2255
   -14.2812  -2.9353  -0.2308   0.2608   0.4297   0.6187   0.9151   1.1286
     1.4463   1.7873   2.1495   2.2913   2.5894   2.7956   2.9685   3.0378
     3.3928   3.7206   3.9306   4.1232   4.3878   4.6069   4.8112   5.2681
     5.3785   6.1563   6.8602   7.3194   8.6945   9.6317  10.9333  12.4765
    13.3978  14.3345  15.2575  16.1941

          k =-0.1250-0.4330-0.0673 (  4428 PWs)   bands (ev):

   -99.3729 -98.5574 -98.4518 -98.0087 -50.7417 -50.7094 -50.6268 -49.9225
   -49.8847 -49.8345 -49.8112 -49.7416 -49.7301 -49.3963 -49.3050 -49.2255
   -14.2821  -2.8940  -0.0508   0.0919   0.4786   0.6964   1.0043   1.2066
     1.4518   1.7043   1.9995   2.2751   2.5975   2.7540   2.8229   3.0475
     3.3286   3.7206   3.9354   4.1024   4.3886   4.7057   4.8403   5.1713
     5.3598   5.9913   6.5406   7.7160   8.7973   9.7454  10.7598  12.3889
    13.3378  14.2930  15.1882  16.2424

          k = 0.0000-0.3608-0.0673 (  4442 PWs)   bands (ev):

   -99.3745 -98.5590 -98.4535 -98.0104 -50.7463 -50.6836 -50.6085 -49.9007
   -49.8857 -49.8122 -49.7939 -49.7423 -49.7102 -49.3733 -49.2848 -49.2288
   -14.4038  -3.3520  -0.3287  -0.0125   0.3996   0.5823   1.0728   1.2175
     1.7206   1.8361   1.9914   2.4120   2.5868   2.8239   2.9417   3.0502
     3.4768   3.5338   3.7257   3.9227   4.1186   4.3659   4.4474   4.6395
     4.9300   5.0308   5.2415   6.9556   8.5911   9.6702  10.5038  12.6739
    14.6184  14.7946  15.3890  15.8260

          k = 0.8750 0.0000-0.0673 (  4420 PWs)   bands (ev):

   -99.3718 -98.5563 -98.4508 -98.0077 -50.7388 -50.7125 -50.6521 -49.9422
   -49.8874 -49.8420 -49.8247 -49.7416 -49.7379 -49.4160 -49.3131 -49.2234
   -14.2008  -2.5867  -0.2941  -0.0058   0.4804   0.6592   0.8306   1.2558
     1.3738   1.5354   1.8520   2.1473   2.6231   2.8124   3.1207   3.4282
     3.6129   3.7740   4.3328   4.5941   4.8579   4.9303   5.1989   5.3746
     5.4994   6.7283   8.1804   8.7415   9.3922   9.5855   9.9875  11.1738
    11.7330  13.2028  13.5305  16.0801

          k = 0.0000-0.5052-0.0673 (  4396 PWs)   bands (ev):

[...]
     3.7929   3.9819   4.2275   4.3764   4.5770   4.7407   5.0439   5.2654
     5.4164   5.6478   6.0779   7.8392   8.4092  10.0805  10.5608  13.1327
    14.0708  14.8536  15.4791  15.8683

          k = 0.3750 0.1443-0.0673 (  4438 PWs)   bands (ev):

   -99.4120 -98.2441 -98.0545 -97.6284 -50.8365 -50.7964 -50.5529 -49.5980
   -49.5283 -49.5006 -49.4160 -49.3226 -49.3066 -49.0099 -48.9187 -48.8181
   -16.3941  -3.4032  -0.9984  -0.2493   0.1659   0.7980   1.1668   1.4504
     1.6807   1.8164   2.2360   2.4227   2.7701   2.9028   3.2383   3.5242
     3.6760   3.8622   4.2133   4.3968   4.5643   4.7424   5.0448   5.2555
     5.4384   5.6619   6.1117   7.8297   8.2117  10.0643  10.7126  13.1262
    14.0538  14.8528  15.4632  15.8939

          k =-0.4375 0.3248-0.0673 (  4394 PWs)   bands (ev):

   -99.4104 -98.2425 -98.0528 -97.6268 -50.8609 -50.7920 -50.5723 -49.6315
   -49.5253 -49.5105 -49.4480 -49.3324 -49.3034 -49.0437 -48.9281 -48.8144
   -16.2860  -2.9942  -1.4757  -0.2327  -0.0538   0.8638   1.0844   1.2878
     1.5151   1.6898   2.1773   2.4877   2.7741   2.9844   3.2527   3.7013
     4.2137   4.4130   4.5667   4.9613   5.2276   5.3534   5.5970   5.6957
     5.9649   7.1077   7.5810   8.3240   9.5113  10.0600  10.6045  11.3153
    12.1146  12.8750  13.9904  15.6521

          k = 0.5000 0.2165-0.0673 (  4394 PWs)   bands (ev):

   -99.4104 -98.2425 -98.0528 -97.6268 -50.8637 -50.7919 -50.5697 -49.6316
   -49.5254 -49.5103 -49.4481 -49.3324 -49.3034 -49.0436 -48.9282 -48.8144
   -16.2859  -3.0171  -1.4667  -0.2316  -0.0668   0.8715   1.0876   1.2993
     1.5213   1.6908   2.1886   2.5121   2.8128   3.0038   3.2579   3.6979
     4.2486   4.3623   4.5568   4.9276   5.2200   5.3538   5.6114   5.6804
     5.9685   7.0066   7.5682   8.3324   9.5008  10.0977  10.6410  11.3057
    12.1377  12.8416  14.0773  15.6466

          k = 0.4375-0.1804-0.0673 (  4416 PWs)   bands (ev):

   -99.4109 -98.2430 -98.0534 -97.6273 -50.8550 -50.7935 -50.5630 -49.6198
   -49.5262 -49.5069 -49.4370 -49.3289 -49.3045 -49.0318 -48.9249 -48.8157
   -16.3243  -3.1685  -1.2810  -0.2408   0.0122   0.8812   1.1336   1.3602
     1.5716   1.7402   2.2047   2.5414   2.7856   2.9688   3.2280   3.6908
     4.0290   4.1557   4.4746   4.6984   4.9626   5.1937   5.3169   5.4850
     5.7507   6.3925   7.0371   7.5283   8.9593  10.2034  11.1899  11.9262
    12.7967  14.0165  14.9487  16.0537

          k =-0.3750-0.2887-0.0673 (  4416 PWs)   bands (ev):

   -99.4110 -98.2430 -98.0534 -97.6273 -50.8469 -50.7936 -50.5706 -49.6194
   -49.5261 -49.5074 -49.4368 -49.3291 -49.3045 -49.0320 -48.9247 -48.8157
   -16.3244  -3.1184  -1.2925  -0.2399   0.0489   0.8480   1.1170   1.3240
     1.5555   1.7387   2.1683   2.4624   2.6988   2.9526   3.2025   3.7056
     3.9988   4.3550   4.4548   4.7569   4.9653   5.2004   5.3117   5.4960
     5.7375   6.3833   7.0366   7.7502   8.9295  10.1907  11.0575  11.9057
    12.8345  14.0294  14.8623  15.9315

          k = 0.3125-0.1083-0.0673 (  4460 PWs)   bands (ev):

   -99.4134 -98.2455 -98.0559 -97.6298 -50.8113 -50.8000 -50.5407 -49.5694
   -49.5315 -49.4923 -49.3880 -49.3143 -49.3095 -48.9813 -48.9106 -48.8212
   -16.4835  -3.6925  -0.7534  -0.2223   0.2809   0.6061   1.0960   1.5046
     1.8122   1.8703   2.1412   2.3649   2.8297   2.9341   2.9592   3.1772
     3.4303   3.6806   3.8173   4.0234   4.3454   4.4833   4.6813   4.8972
     5.2105   5.3480   5.4990   7.2138   8.6807   9.6829  10.6293  12.4787
    14.4839  14.9239  15.8701  16.2872

          k =-0.2500-0.2165-0.0673 (  4460 PWs)   bands (ev):

   -99.4135 -98.2455 -98.0559 -97.6298 -50.8012 -50.7946 -50.5557 -49.5683
   -49.5314 -49.4934 -49.3874 -49.3149 -49.3096 -48.9819 -48.9100 -48.8212
   -16.4838  -3.6685  -0.7444  -0.1662   0.3667   0.5118   1.0168   1.4609
     1.7525   1.8588   2.1215   2.3566   2.7728   2.8891   3.0027   3.4106
     3.4706   3.6427   3.8194   4.0239   4.2962   4.4777   4.6775   4.9095
     5.1910   5.3179   5.4805   7.1305   8.9049   9.6270  10.6153  12.4775
    14.4989  14.9166  15.9111  16.2845

          k = 0.1875-0.0361-0.0673 (  4490 PWs)   bands (ev):

   -99.4164 -98.2485 -98.0588 -97.6328 -50.8084 -50.7557 -50.5172 -49.5394
   -49.5092 -49.4747 -49.3286 -49.3156 -49.2970 -48.9211 -48.8938 -48.8278
   -16.6636  -4.3166  -1.0319  -0.5401   0.2683   0.5174   0.8919   1.2697
     1.4002   2.0493   2.2636   2.3356   2.7161   2.8318   2.9068   3.1484
     3.2628   3.4297   3.6571   3.7184   3.9235   4.1117   4.3721   4.5371
     4.7056   5.0669   5.3956   6.0850   8.2118  10.1743  10.8707  11.5384
    13.2642  13.6957  15.0446  15.7239

          k =-0.1250-0.1443-0.0673 (  4490 PWs)   bands (ev):

   -99.4164 -98.2485 -98.0588 -97.6328 -50.8087 -50.7405 -50.5316 -49.5394
   -49.5068 -49.4771 -49.3276 -49.3157 -49.2981 -48.9224 -48.8925 -48.8278
   -16.6638  -4.3314  -1.0434  -0.5462   0.3613   0.6477   0.8840   1.2615
     1.3035   1.9659   2.2998   2.5175   2.6580   2.8433   2.8965   3.1130
     3.2724   3.4282   3.6467   3.7067   3.8163   4.1126   4.3499   4.5087
     4.7182   5.0417   5.3845   6.0134   8.1829  10.3092  10.8947  11.5517
    13.2639  13.6705  15.0414  15.7156

          k = 0.0000-0.0722-0.0673 (  4520 PWs)   bands (ev):

   -99.4181 -98.2501 -98.0605 -97.6345 -50.8132 -50.7161 -50.5115 -49.5439
   -49.4698 -49.4698 -49.3195 -49.2921 -49.2894 -48.8891 -48.8819 -48.8315
   -16.7623  -4.7064  -1.4639  -1.0304  -0.1648   0.6412   0.7328   1.3031
     1.6554   1.9995   2.0278   2.4519   2.8752   2.9390   3.0329   3.1525
     3.2493   3.4792   3.5684   3.6047   3.7098   3.8981   4.4902   4.5098
     4.9087   5.0953   5.3288   5.4526   7.1574  10.7868  10.9509  11.6341
    12.7127  13.0790  14.5832  15.0338

          k = 0.3750 0.0000-0.0673 (  4450 PWs)   bands (ev):

   -99.4125 -98.2446 -98.0549 -97.6289 -50.8298 -50.7975 -50.5481 -49.5802
   -49.5293 -49.5067 -49.3984 -49.3291 -49.3074 -48.9912 -48.9260 -48.8190
   -16.4231  -3.5182  -0.7667  -0.2249   0.6433   0.7215   1.3435   1.6705
     1.7417   2.0144   2.2459   2.3018   2.6425   2.7823   2.8906   3.1772
     3.3291   3.5571   3.7148   3.8016   4.3505   4.6417   4.8505   5.2366
     5.4221   5.7534   6.2333   7.8286   8.2779  10.2256  10.2610  13.0099
    14.9691  15.4264  16.0123  16.0763

          k =-0.3125 0.3969-0.0673 (  4428 PWs)   bands (ev):

   -99.4104 -98.2425 -98.0528 -97.6268 -50.8311 -50.7924 -50.6012 -49.6092
   -49.5343 -49.5231 -49.4274 -49.3543 -49.3032 -49.0231 -48.9491 -48.8143
   -16.2879  -2.9430  -1.0600  -0.2224   0.2174   1.0281   1.3319   1.6011
     1.8258   1.9663   2.2388   2.3126   2.4879   2.9073   3.2223   3.2633
     3.6830   3.8853   4.1455   4.2936   4.6200   4.8926   5.1810   5.5671
     5.6945   7.4912   8.0302   8.3042   9.3818   9.8810  11.5950  12.2753
    13.1222  14.0652  14.8623  15.3361

          k = 0.5000 0.0722-0.0673 (  4428 PWs)   bands (ev):

   -99.4104 -98.2425 -98.0528 -97.6268 -50.8566 -50.7920 -50.5770 -49.6109
   -49.5331 -49.5226 -49.4284 -49.3534 -49.3031 -49.0222 -48.9500 -48.8143
   -16.2874  -3.0704  -1.0816  -0.1852   0.2051   1.1658   1.4453   1.5372
     1.8580   2.0386   2.3003   2.4138   2.5335   2.9323   3.2385   3.2584
     3.6794   3.9046   4.1387   4.2791   4.5272   4.8430   5.0868   5.6291
     5.7017   7.0956   7.5746   8.4397   9.6448  10.0461  11.6092  12.3611
    13.0400  14.2741  15.0144  15.4658

          k =-0.4375 0.4691-0.0673 (  4432 PWs)   bands (ev):

   -99.4099 -98.2420 -98.0523 -97.6263 -50.8572 -50.7908 -50.5892 -49.6174
   -49.5391 -49.5221 -49.4347 -49.3597 -49.3022 -49.0293 -48.9559 -48.8132
   -16.2551  -2.9126  -1.1880  -0.1834   0.1146   1.0894   1.4286   1.5200
     1.7908   2.0744   2.3149   2.3942   2.4784   3.0426   3.1478   3.3775
     3.7519   4.0976   4.2911   4.5002   4.7862   4.9163   5.2523   5.5611
     5.8896   6.9240   8.7363   9.4185   9.7432  10.3443  11.1612  11.5809
    12.8060  13.0805  14.3378  15.6340

          k = 0.6250 0.1443-0.0673 (  4432 PWs)   bands (ev):

   -99.4099 -98.2420 -98.0523 -97.6263 -50.8484 -50.7910 -50.5976 -49.6168
   -49.5396 -49.5222 -49.4343 -49.3600 -49.3022 -49.0296 -48.9555 -48.8132
   -16.2553  -2.8554  -1.1932  -0.2076   0.1381   1.0482   1.3874   1.5422
     1.7805   2.0189   2.2730   2.3979   2.4422   3.0108   3.1667   3.3540
     3.7637   4.0855   4.2985   4.5142   4.8020   4.9634   5.2536   5.5417
     5.8310   7.3747   8.6972   9.3050   9.6157  10.3900  11.1242  11.6034
    12.7601  13.1823  14.0199  15.6066

          k = 0.4375-0.0361-0.0673 (  4450 PWs)   bands (ev):

   -99.4113 -98.2434 -98.0537 -97.6277 -50.8470 -50.7943 -50.5626 -49.5981
   -49.5274 -49.5192 -49.4159 -49.3425 -49.3050 -49.0090 -48.9393 -48.8164
   -16.3467  -3.2804  -0.9271  -0.2097   0.4061   1.0892   1.4427   1.6069
     1.8814   1.9864   2.1722   2.4527   2.6663   2.7630   2.9946   3.3509
     3.5066   3.6944   3.8012   4.0035   4.3995   4.7524   4.9022   5.4329
     5.6406   6.5574   7.1980   7.6992   8.8103   9.9528  10.9759  13.6114
    14.2570  14.8529  15.6778  15.9604

          k =-0.2500-0.3608-0.0673 (  4450 PWs)   bands (ev):

   -99.4113 -98.2434 -98.0537 -97.6277 -50.8077 -50.7949 -50.6001 -49.5955
   -49.5270 -49.5222 -49.4144 -49.3438 -49.3051 -49.0105 -48.9379 -48.8164
   -16.3475  -3.1619  -0.8343  -0.2046   0.2765   0.9615   1.3428   1.6769
     1.8096   1.9964   2.1044   2.3228   2.5741   2.7810   2.9957   3.3775
     3.4919   3.6009   3.8072   4.1521   4.4933   4.8593   4.9516   5.3760
     5.6235   6.4973   7.1027   8.4229   8.7108   9.7884  10.7579  13.6657
    14.2720  14.7924  15.4102  15.9399

          k = 0.3125 0.0361-0.0673 (  4452 PWs)   bands (ev):

   -99.4138 -98.2459 -98.0562 -97.6302 -50.8076 -50.8008 -50.5359 -49.5594
   -49.5324 -49.4935 -49.3780 -49.3158 -49.3102 -48.9706 -48.9126 -48.8219
   -16.5043  -3.7689  -0.6862  -0.2000   0.3289   0.7845   1.0449   1.4811
     1.8604   2.0096   2.0823   2.4696   2.4963   2.8307   2.9435   3.0941
     3.1980   3.4016   3.7206   3.9161   4.2981   4.5307   4.6419   4.8834
     5.2304   5.2785   5.5278   7.1396   8.7505   9.7089  10.5132  12.3439
    14.3206  14.7704  15.8448  16.7866

          k =-0.1250-0.2887-0.0673 (  4452 PWs)   bands (ev):

   -99.4138 -98.2459 -98.0562 -97.6302 -50.8021 -50.7558 -50.5848 -49.5559
   -49.5316 -49.4977 -49.3761 -49.3176 -49.3103 -48.9727 -48.9106 -48.8220
   -16.5051  -3.7748  -0.7018   0.0530   0.2408   0.8191   1.2003   1.2933
     1.8685   1.9691   2.1585   2.4320   2.4721   2.7159   2.9409   3.1127
     3.3254   3.4930   3.6324   3.8690   4.3163   4.3720   4.6019   4.8838
     5.2184   5.2695   5.3751   6.8543   9.0073   9.6959  10.7616  12.2986
    14.3367  14.7318  15.8752  16.8055

          k = 0.0000-0.2165-0.0673 (  4480 PWs)   bands (ev):

   -99.4160 -98.2480 -98.0583 -97.6323 -50.8077 -50.7276 -50.5569 -49.5383
   -49.5153 -49.4814 -49.3376 -49.3147 -49.3010 -48.9345 -48.8934 -48.8267
   -16.6343  -4.2554  -0.9773  -0.3996   0.5258   0.6139   1.1258   1.1967
     1.4265   1.9171   2.3152   2.6020   2.6079   2.7463   2.8962   3.1538
     3.2237   3.4080   3.6778   3.7213   3.8252   4.1708   4.3076   4.4627
     4.8198   4.8698   5.4277   6.0774   8.3542  10.0944  11.3589  11.4170
    13.4353  13.8183  15.1558  15.9327

          k = 0.6250 0.0000-0.0673 (  4434 PWs)   bands (ev):

   -99.4094 -98.2415 -98.0519 -97.6258 -50.8457 -50.7899 -50.6120 -49.5964
   -49.5717 -49.5207 -49.4144 -49.3923 -49.3012 -49.0073 -48.9897 -48.8122
   -16.2267  -2.7661  -0.8591  -0.3106  -0.0686   1.3752   1.4794   1.8355
     2.0661   2.1665   2.3349   2.4790   2.6067   2.8737   3.1782   3.4952
     3.6868   3.7649   3.8823   4.1085   4.3715   4.8563   5.2227   5.3742
     5.9599   7.1606   8.8857   9.8688  10.7191  10.9845  11.0617  12.5447
    12.7368  13.3910  14.2678  14.7527

          k =-0.4375 0.6134-0.0673 (  4444 PWs)   bands (ev):

   -99.4098 -98.2418 -98.0522 -97.6261 -50.8550 -50.7905 -50.5945 -49.6068
   -49.5527 -49.5216 -49.4244 -49.3735 -49.3018 -49.0179 -48.9704 -48.8130
   -16.2480  -2.9032  -1.0053  -0.1383   0.0102   1.2822   1.5110   1.7227
     2.0216   2.1364   2.3263   2.3646   2.6077   2.9967   3.0435   3.3781
     3.6386   3.8637   4.0188   4.1417   4.4586   4.8075   5.1915   5.5671
     5.9492   6.8469   8.7098   9.2916   9.7532  11.0011  11.4494  12.2247
    13.0519  13.4927  14.5296  14.7669

          k = 0.7500 0.0722-0.0673 (  4444 PWs)   bands (ev):

   -99.4098 -98.2418 -98.0522 -97.6261 -50.8106 -50.7913 -50.6368 -49.6029
   -49.5564 -49.5218 -49.4223 -49.3754 -49.3020 -49.0199 -48.9683 -48.8130
   -16.2488  -2.7632  -0.8711  -0.2898  -0.0903   1.2358   1.3146   1.7506
     2.0346   2.2188   2.3010   2.3306   2.5929   2.9977   3.0431   3.3201
     3.6005   3.8183   3.9837   4.1068   4.5100   4.9217   5.2387   5.5177
     5.6911   7.9952   8.5962   8.8506   9.6670  10.9029  11.4625  12.1605
    13.0032  13.2018  14.3102  14.9323

          k = 0.4375 0.1083-0.0673 (  4428 PWs)   bands (ev):

   -99.4112 -98.2433 -98.0536 -97.6276 -50.8502 -50.7940 -50.5623 -49.6077
   -49.5266 -49.5132 -49.4254 -49.3356 -49.3048 -49.0193 -48.9320 -48.8161
   -16.3388  -3.2411  -1.0770  -0.2267   0.2075   1.0418   1.2884   1.4918
     1.6346   1.9453   2.2382   2.4398   2.6321   2.9153   3.2216   3.4511
     3.7051   3.9197   4.2370   4.3596   4.5392   4.8067   5.0275   5.4375
     5.6418   6.4886   7.1230   7.6264   8.8392  10.0510  11.0749  12.9007
    13.6070  14.4180  15.4724  16.1732

          k =-0.1250-0.4330-0.0673 (  4428 PWs)   bands (ev):

   -99.4113 -98.2433 -98.0536 -97.6276 -50.7957 -50.7686 -50.6400 -49.6039
   -49.5256 -49.5180 -49.4233 -49.3374 -49.3051 -49.0213 -48.9299 -48.8161
   -16.3401  -3.1833  -0.9055  -0.4205   0.3483   1.0441   1.2453   1.3900
     1.7410   1.9192   2.1562   2.4583   2.6311   2.8661   3.2060   3.3306
     3.6405   3.9233   4.2705   4.3589   4.6240   4.8935   4.9931   5.3026
     5.6227   6.3022   6.8545   7.9408   9.0065  10.2624  10.7882  12.7697
    13.5508  14.3613  15.2952  16.1300

          k = 0.0000-0.3608-0.0673 (  4442 PWs)   bands (ev):

   -99.4129 -98.2449 -98.0553 -97.6292 -50.8000 -50.7438 -50.6208 -49.5804
   -49.5294 -49.4978 -49.4006 -49.3173 -49.3085 -48.9981 -48.9097 -48.8199
   -16.4461  -3.6138  -0.7409  -0.4502   0.5393   0.8896   1.0376   1.3913
     1.6918   1.9012   2.1425   2.6202   2.7576   2.9827   3.0628   3.3209
     3.5441   3.8415   3.8974   4.2597   4.5176   4.5866   4.7399   4.9669
     5.1362   5.2770   5.4298   6.9547   8.8220   9.7774  11.1085  12.6728
    14.7512  14.9350  15.1995  15.8998

          k = 0.8750 0.0000-0.0673 (  4420 PWs)   bands (ev):

   -99.4102 -98.2422 -98.0525 -97.6265 -50.7930 -50.7727 -50.6640 -49.6238
   -49.5265 -49.5235 -49.4421 -49.3456 -49.3030 -49.0412 -48.9381 -48.8137
   -16.2697  -2.8909  -1.2561  -0.4283   0.3186   0.9444   1.1294   1.3368
     1.6431   1.8305   2.0010   2.3530   2.9133   3.0263   3.2129   3.6155
     3.9790   4.0139   4.5754   4.8757   5.1123   5.1298   5.4748   5.5686
     5.6678   6.9008   8.6104   9.1104   9.7428  10.0991  10.2675  11.4559
    11.9032  13.0531  13.5642  16.0915

          k = 0.0000-0.5052-0.0673 (  4396 PWs)   bands (ev):

   -99.4108 -98.2428 -98.0531 -97.6271 -50.7947 -50.7551 -50.6655 -49.6253
   -49.5252 -49.5094 -49.4435 -49.3288 -49.3043 -49.0427 -48.9212 -48.8151
   -16.3073  -3.1061  -1.2815  -0.5792   0.6714   0.7299   0.9741   1.1269
     1.5587   1.7985   1.8884   2.4654   2.8655   2.8844   3.5842   3.7378
     4.2492   4.3421   4.5413   4.7518   5.2663   5.3079   5.5127   5.6999
     5.9743   6.0877   6.8943   7.7803   9.2708  10.6530  10.8696  11.3525
    11.8928  13.1768  14.6219  15.4017

     the Fermi energy is     7.4006 ev

!    total energy              =   -1158.83156779 Ry
     Harris-Foulkes estimate   =   -1158.83156780 Ry
     estimated scf accuracy    <          6.6E-09 Ry

     The total energy is the sum of the following terms:

     one-electron contribution =   -5756.94845493 Ry
     hartree contribution      =    2883.06613950 Ry
     xc contribution           =    -113.30216835 Ry
     ewald contribution        =    1844.06143033 Ry
     one-center paw contrib.   =     -15.70771817 Ry
     smearing contrib. (-TS)   =      -0.00079618 Ry

     convergence has been achieved in   8 iterations

     Forces acting on atoms (Ry/au):


     negative rho (up, down):  1.347E-04 0.000E+00
     atom    1 type  1   force =     0.00000000    0.00009854   -0.00005685
     atom    2 type  1   force =     0.00000000    0.00051121    0.00078652
     atom    3 type  1   force =     0.00000000    0.00065106   -0.00012173
     atom    4 type  1   force =     0.00000000   -0.00034447   -0.00010406
     atom    5 type  2   force =     0.00000000   -0.00045532   -0.00076869
     atom    6 type  3   force =     0.00000000   -0.00046102    0.00026481

     Total force =     0.001594     Total SCF correction =     0.000441
     SCF correction compared to forces is large: reduce conv_thr to get better values

     bfgs converged in  23 scf cycles and  21 bfgs steps
     (criteria: energy <  1.0E-04, force <  1.0E-03)

     End of BFGS Geometry Optimization

     Final energy   =   -1158.8315677922 Ry
Begin final coordinates

ATOMIC_POSITIONS (alat)
Au       0.000000000   0.001354372  -0.081982297
Au       0.500000000   0.294375621   0.790562881
Au       0.000000000   0.597963138   1.659453085
Au       0.000000000  -0.021110101   2.516792424
C        0.500000000  -0.006265844   3.074425458
O        0.500001000   0.000707813   3.478305448
End final coordinates



     Writing output data file CO_Au_bridge.save

     init_run     :     37.38s CPU     42.20s WALL (       1 calls)
     electrons    :  26396.92s CPU  24214.00s WALL (      23 calls)
     update_pot   :     36.80s CPU     41.79s WALL (      22 calls)
     forces       :    475.91s CPU    340.65s WALL (      23 calls)

     Called by init_run:
     wfcinit      :     34.13s CPU     37.90s WALL (       1 calls)
     potinit      :      0.89s CPU      1.16s WALL (       1 calls)

     Called by electrons:
     c_bands      :  23106.67s CPU  20655.81s WALL (     232 calls)
     sum_band     :   3117.81s CPU   3349.73s WALL (     232 calls)
     v_of_rho     :     51.95s CPU     60.59s WALL (     243 calls)
     newd         :     97.83s CPU    120.88s WALL (     243 calls)
     mix_rho      :      4.62s CPU      5.69s WALL (     232 calls)

     Called by c_bands:
     init_us_2    :    266.68s CPU    281.52s WALL (   26520 calls)
     cegterg      :  21712.07s CPU  19225.12s WALL (   12064 calls)

     Called by *egterg:
     h_psi        :  12506.53s CPU  12762.28s WALL (   43671 calls)
     s_psi        :   2423.44s CPU   1501.86s WALL (   43671 calls)
     g_psi        :     46.12s CPU     34.04s WALL (   31555 calls)
     cdiaghg      :    742.87s CPU    903.13s WALL (   41851 calls)

     Called by h_psi:
     add_vuspsi   :   2415.56s CPU   1599.11s WALL (   43671 calls)

     General routines
     calbec       :   3810.69s CPU   3654.76s WALL (   58075 calls)
     fft          :     18.36s CPU     22.66s WALL (    4119 calls)
     ffts         :      1.31s CPU      1.40s WALL (     475 calls)
     fftw         :   7617.85s CPU   8751.97s WALL ( 3764274 calls)
     interpolate  :      5.18s CPU      6.02s WALL (     475 calls)
     davcio       :      0.05s CPU      0.60s WALL (      52 calls)

     Parallel routines
     fft_scatter  :    744.79s CPU    834.69s WALL ( 3768868 calls)

     PAW routines
     PAW_pot      :     34.94s CPU     41.25s WALL (     265 calls)
     PAW_symme    :      0.01s CPU      0.01s WALL (     497 calls)

     PWSCF        :     7h31m CPU        6h52m WALL


   This run was terminated on:  11:11:18  18Jun2018            

=------------------------------------------------------------------------------=
   JOB DONE.
=------------------------------------------------------------------------------=
